
Predictions were generated on 14-Apr-2026 at 19:50:31 using OpenFAST, compiled on Jan 27 2026 at 22:54:51 as a 64-bit application using single precision at commit v4.2.0
 linked with  NWTC Subroutine Library; ElastoDyn; InflowWind; AeroDyn; ServoDyn

Description from the FAST input file: FAST Certification Test #26: NREL 5.0 MW Baseline Wind Turbine (Onshore)

Time	Wind1VelX	Wind1VelY	Wind1VelZ	OoPDefl1	IPDefl1	RotSpeed	RotTorq	BldPitch1	BldPitch2	BldPitch3	NacYaw	RtSkew	RtVAvgxh	RtVAvgyh	RtTSR	RtAeroCp	GenPwr	GenTq
(s)	(m/s)	(m/s)	(m/s)	(m)	(m)	(rpm)	(kN-m)	(deg)	(deg)	(deg)	(deg)	(deg)	(m/s)	(m/s)	(-)	(-)	(kW)	(kN-m)
    0.0000	 7.096E+00	 1.213E-01	-2.288E-01	 0.000E+00	 0.000E+00	 7.500E+00	 5.229E-06	 0.000E+00	 0.000E+00	 0.000E+00	 0.000E+00	 3.946E+00	 5.571E+00	-9.473E-03	 8.873E+00	 3.488E-01	 8.877E+02	 1.234E+01
    0.1000	 7.214E+00	 1.081E-01	-3.206E-01	 0.000E+00	 0.000E+00	 7.487E+00	 1.121E+03	 0.000E+00	 0.000E+00	 0.000E+00	 0.000E+00	 3.219E+00	 5.539E+00	-3.795E-02	 8.908E+00	 3.439E-01	 8.829E+02	 1.230E+01
    0.2000	 7.198E+00	 1.412E-01	-2.598E-01	 0.000E+00	 0.000E+00	 7.473E+00	 1.114E+03	 0.000E+00	 0.000E+00	 0.000E+00	 0.000E+00	 4.832E+00	 5.448E+00	-7.179E-02	 9.040E+00	 3.416E-01	 8.780E+02	 1.225E+01
    0.3000	 7.088E+00	 2.545E-01	-1.810E-01	 0.000E+00	 0.000E+00	 7.458E+00	 1.104E+03	 0.000E+00	 0.000E+00	 0.000E+00	 0.000E+00	 5.630E+00	 5.335E+00	-5.196E-02	 9.214E+00	 3.297E-01	 8.729E+02	 1.221E+01
    0.4000	 7.041E+00	 3.521E-01	-2.695E-01	 0.000E+00	 0.000E+00	 7.442E+00	 1.097E+03	 0.000E+00	 0.000E+00	 0.000E+00	 0.000E+00	 4.758E+00	 5.296E+00	-5.525E-02	 9.262E+00	 3.205E-01	 8.674E+02	 1.215E+01
    0.5000	 7.075E+00	 2.597E-01	-2.908E-01	 0.000E+00	 0.000E+00	 7.427E+00	 1.095E+03	 0.000E+00	 0.000E+00	 0.000E+00	 0.000E+00	 4.107E+00	 5.341E+00	-6.088E-02	 9.165E+00	 3.226E-01	 8.621E+02	 1.210E+01
    0.6000	 7.079E+00	 1.676E-01	-2.294E-01	 0.000E+00	 0.000E+00	 7.412E+00	 1.089E+03	 0.000E+00	 0.000E+00	 0.000E+00	 0.000E+00	 3.478E+00	 5.342E+00	 2.336E-02	 9.145E+00	 3.159E-01	 8.568E+02	 1.206E+01
    0.7000	 7.158E+00	 1.666E-01	-3.686E-01	 0.000E+00	 0.000E+00	 7.397E+00	 1.083E+03	 0.000E+00	 0.000E+00	 0.000E+00	 0.000E+00	 3.209E+00	 5.310E+00	 1.117E-01	 9.180E+00	 3.067E-01	 8.515E+02	 1.201E+01
    0.8000	 7.173E+00	-8.418E-02	-4.733E-01	 0.000E+00	 0.000E+00	 7.381E+00	 1.078E+03	 0.000E+00	 0.000E+00	 0.000E+00	 0.000E+00	 3.836E+00	 5.276E+00	 1.401E-01	 9.220E+00	 3.086E-01	 8.461E+02	 1.195E+01
    0.9000	 7.202E+00	-1.330E-01	-3.674E-01	 0.000E+00	 0.000E+00	 7.366E+00	 1.082E+03	 0.000E+00	 0.000E+00	 0.000E+00	 0.000E+00	 4.549E+00	 5.372E+00	 2.765E-01	 9.038E+00	 3.385E-01	 8.410E+02	 1.191E+01
    1.0000	 7.264E+00	 7.761E-04	-2.960E-01	 0.000E+00	 0.000E+00	 7.353E+00	 1.092E+03	 0.000E+00	 0.000E+00	 0.000E+00	 0.000E+00	 4.805E+00	 5.571E+00	 4.110E-01	 8.699E+00	 3.733E-01	 8.366E+02	 1.187E+01
    1.1000	 7.266E+00	-9.910E-02	-2.338E-01	 0.000E+00	 0.000E+00	 7.343E+00	 1.100E+03	 0.000E+00	 0.000E+00	 0.000E+00	 0.000E+00	 5.043E+00	 5.714E+00	 4.900E-01	 8.470E+00	 3.972E-01	 8.332E+02	 1.183E+01
    1.2000	 7.240E+00	-1.338E-01	-4.910E-03	 0.000E+00	 0.000E+00	 7.335E+00	 1.104E+03	 0.000E+00	 0.000E+00	 0.000E+00	 0.000E+00	 5.659E+00	 5.775E+00	 5.637E-01	 8.372E+00	 4.111E-01	 8.304E+02	 1.181E+01
    1.3000	 7.287E+00	-4.595E-02	-3.363E-02	 0.000E+00	 0.000E+00	 7.327E+00	 1.100E+03	 0.000E+00	 0.000E+00	 0.000E+00	 0.000E+00	 5.649E+00	 5.742E+00	 5.445E-01	 8.410E+00	 4.092E-01	 8.277E+02	 1.178E+01
    1.4000	 7.277E+00	 1.477E-02	-8.594E-02	 0.000E+00	 0.000E+00	 7.319E+00	 1.097E+03	 0.000E+00	 0.000E+00	 0.000E+00	 0.000E+00	 4.517E+00	 5.700E+00	 4.162E-01	 8.463E+00	 4.131E-01	 8.249E+02	 1.175E+01
    1.5000	 7.249E+00	 1.190E-02	 2.040E-02	 0.000E+00	 0.000E+00	 7.311E+00	 1.093E+03	 0.000E+00	 0.000E+00	 0.000E+00	 0.000E+00	 3.647E+00	 5.633E+00	 2.911E-01	 8.555E+00	 4.202E-01	 8.221E+02	 1.173E+01
    1.6000	 7.189E+00	-3.192E-02	-2.761E-03	 0.000E+00	 0.000E+00	 7.302E+00	 1.086E+03	 0.000E+00	 0.000E+00	 0.000E+00	 0.000E+00	 4.222E+00	 5.600E+00	 3.502E-01	 8.594E+00	 4.063E-01	 8.191E+02	 1.170E+01
    1.7000	 7.172E+00	-7.915E-02	-7.670E-02	 0.000E+00	 0.000E+00	 7.292E+00	 1.081E+03	 0.000E+00	 0.000E+00	 0.000E+00	 0.000E+00	 5.005E+00	 5.587E+00	 4.321E-01	 8.602E+00	 3.944E-01	 8.159E+02	 1.167E+01
    1.8000	 7.170E+00	-1.034E-01	-6.788E-02	 0.000E+00	 0.000E+00	 7.282E+00	 1.074E+03	 0.000E+00	 0.000E+00	 0.000E+00	 0.000E+00	 5.086E+00	 5.530E+00	 4.644E-01	 8.680E+00	 3.880E-01	 8.126E+02	 1.164E+01
    1.9000	 7.355E+00	-9.556E-02	-1.304E-01	 0.000E+00	 0.000E+00	 7.271E+00	 1.067E+03	 0.000E+00	 0.000E+00	 0.000E+00	 0.000E+00	 4.613E+00	 5.465E+00	 4.407E-01	 8.770E+00	 3.754E-01	 8.090E+02	 1.160E+01
    2.0000	 7.337E+00	-1.379E-01	-2.075E-01	 0.000E+00	 0.000E+00	 7.260E+00	 1.062E+03	 0.000E+00	 0.000E+00	 0.000E+00	 0.000E+00	 4.319E+00	 5.428E+00	 4.001E-01	 8.815E+00	 3.727E-01	 8.052E+02	 1.157E+01
    2.1000	 7.284E+00	-8.516E-02	-1.262E-01	 0.000E+00	 0.000E+00	 7.248E+00	 1.054E+03	 0.000E+00	 0.000E+00	 0.000E+00	 0.000E+00	 4.938E+00	 5.373E+00	 4.505E-01	 8.891E+00	 3.611E-01	 8.013E+02	 1.153E+01
    2.2000	 7.234E+00	 1.898E-02	-1.459E-01	 0.000E+00	 0.000E+00	 7.236E+00	 1.046E+03	 0.000E+00	 0.000E+00	 0.000E+00	 0.000E+00	 4.457E+00	 5.281E+00	 4.016E-01	 9.031E+00	 3.522E-01	 7.971E+02	 1.149E+01
    2.3000	 7.157E+00	 3.916E-02	-1.806E-01	 0.000E+00	 0.000E+00	 7.223E+00	 1.039E+03	 0.000E+00	 0.000E+00	 0.000E+00	 0.000E+00	 4.287E+00	 5.206E+00	 3.820E-01	 9.143E+00	 3.467E-01	 7.928E+02	 1.145E+01
    2.4000	 7.208E+00	-2.460E-02	-2.503E-01	 0.000E+00	 0.000E+00	 7.209E+00	 1.035E+03	 0.000E+00	 0.000E+00	 0.000E+00	 0.000E+00	 4.253E+00	 5.165E+00	 3.836E-01	 9.199E+00	 3.501E-01	 7.883E+02	 1.140E+01
    2.5000	 7.301E+00	-5.038E-02	-2.127E-01	 0.000E+00	 0.000E+00	 7.196E+00	 1.032E+03	 0.000E+00	 0.000E+00	 0.000E+00	 0.000E+00	 5.320E+00	 5.201E+00	 4.804E-01	 9.118E+00	 3.482E-01	 7.839E+02	 1.136E+01
    2.6000	 7.324E+00	-2.011E-01	-2.005E-01	 0.000E+00	 0.000E+00	 7.182E+00	 1.028E+03	 0.000E+00	 0.000E+00	 0.000E+00	 0.000E+00	 5.671E+00	 5.188E+00	 5.099E-01	 9.126E+00	 3.438E-01	 7.796E+02	 1.132E+01
    2.7000	 7.200E+00	-2.589E-01	-1.914E-01	 0.000E+00	 0.000E+00	 7.169E+00	 1.024E+03	 0.000E+00	 0.000E+00	 0.000E+00	 0.000E+00	 5.417E+00	 5.156E+00	 4.871E-01	 9.165E+00	 3.472E-01	 7.753E+02	 1.128E+01
    2.8000	 7.202E+00	-2.001E-01	-1.645E-01	 0.000E+00	 0.000E+00	 7.156E+00	 1.022E+03	 0.000E+00	 0.000E+00	 0.000E+00	 0.000E+00	 5.397E+00	 5.152E+00	 4.846E-01	 9.155E+00	 3.580E-01	 7.710E+02	 1.124E+01
    2.9000	 7.265E+00	-2.692E-01	-2.667E-01	 0.000E+00	 0.000E+00	 7.143E+00	 1.021E+03	 0.000E+00	 0.000E+00	 0.000E+00	 0.000E+00	 5.069E+00	 5.206E+00	 4.612E-01	 9.045E+00	 3.627E-01	 7.669E+02	 1.120E+01
    3.0000	 7.220E+00	-2.827E-01	-1.656E-01	 0.000E+00	 0.000E+00	 7.131E+00	 1.018E+03	 0.000E+00	 0.000E+00	 0.000E+00	 0.000E+00	 4.980E+00	 5.249E+00	 4.406E-01	 8.954E+00	 3.564E-01	 7.630E+02	 1.116E+01
    3.1000	 7.214E+00	 1.081E-01	-3.206E-01	 0.000E+00	 0.000E+00	 7.117E+00	 1.003E+03	 0.000E+00	 0.000E+00	 0.000E+00	 0.000E+00	 4.798E+00	 5.132E+00	 4.308E-01	 9.139E+00	 3.075E-01	 7.585E+02	 1.111E+01
    3.2000	 7.198E+00	 1.412E-01	-2.598E-01	 0.000E+00	 0.000E+00	 7.103E+00	 9.987E+02	 0.000E+00	 0.000E+00	 0.000E+00	 0.000E+00	 5.093E+00	 5.118E+00	 4.558E-01	 9.147E+00	 3.062E-01	 7.539E+02	 1.107E+01
    3.3000	 7.088E+00	 2.545E-01	-1.810E-01	 0.000E+00	 0.000E+00	 7.088E+00	 9.953E+02	 0.000E+00	 0.000E+00	 0.000E+00	 0.000E+00	 4.680E+00	 5.124E+00	 4.070E-01	 9.119E+00	 3.069E-01	 7.494E+02	 1.103E+01
    3.4000	 7.041E+00	 3.521E-01	-2.695E-01	 0.000E+00	 0.000E+00	 7.074E+00	 9.887E+02	 0.000E+00	 0.000E+00	 0.000E+00	 0.000E+00	 4.096E+00	 5.016E+00	 2.561E-01	 9.296E+00	 3.078E-01	 7.449E+02	 1.098E+01
    3.5000	 7.075E+00	 2.597E-01	-2.908E-01	 0.000E+00	 0.000E+00	 7.059E+00	 9.808E+02	 0.000E+00	 0.000E+00	 0.000E+00	 0.000E+00	 4.118E+00	 4.910E+00	 1.026E-01	 9.476E+00	 2.995E-01	 7.402E+02	 1.094E+01
    3.6000	 7.079E+00	 1.676E-01	-2.294E-01	 0.000E+00	 0.000E+00	 7.044E+00	 9.783E+02	 0.000E+00	 0.000E+00	 0.000E+00	 0.000E+00	 4.158E+00	 4.959E+00	 3.676E-02	 9.363E+00	 3.009E-01	 7.354E+02	 1.089E+01
    3.7000	 7.158E+00	 1.666E-01	-3.686E-01	 0.000E+00	 0.000E+00	 7.030E+00	 9.848E+02	 0.000E+00	 0.000E+00	 0.000E+00	 0.000E+00	 4.212E+00	 5.154E+00	 1.838E-02	 8.990E+00	 3.296E-01	 7.311E+02	 1.085E+01
    3.8000	 7.173E+00	-8.418E-02	-4.733E-01	 0.000E+00	 0.000E+00	 7.019E+00	 9.935E+02	 0.000E+00	 0.000E+00	 0.000E+00	 0.000E+00	 4.568E+00	 5.305E+00	-5.009E-02	 8.720E+00	 3.680E-01	 7.275E+02	 1.081E+01
    3.9000	 7.202E+00	-1.330E-01	-3.674E-01	 0.000E+00	 0.000E+00	 7.009E+00	 9.955E+02	 0.000E+00	 0.000E+00	 0.000E+00	 0.000E+00	 5.685E+00	 5.366E+00	-1.637E-01	 8.609E+00	 3.799E-01	 7.244E+02	 1.078E+01
    4.0000	 7.264E+00	 7.761E-04	-2.960E-01	 0.000E+00	 0.000E+00	 6.999E+00	 9.949E+02	 0.000E+00	 0.000E+00	 0.000E+00	 0.000E+00	 6.119E+00	 5.422E+00	-2.410E-01	 8.509E+00	 3.778E-01	 7.216E+02	 1.075E+01
    4.1000	 7.266E+00	-9.910E-02	-2.338E-01	 0.000E+00	 0.000E+00	 6.991E+00	 9.979E+02	 0.000E+00	 0.000E+00	 0.000E+00	 0.000E+00	 4.953E+00	 5.504E+00	-1.506E-01	 8.372E+00	 3.871E-01	 7.189E+02	 1.072E+01
    4.2000	 7.240E+00	-1.338E-01	-4.910E-03	 0.000E+00	 0.000E+00	 6.983E+00	 9.984E+02	 0.000E+00	 0.000E+00	 0.000E+00	 0.000E+00	 4.332E+00	 5.507E+00	-4.810E-02	 8.358E+00	 3.987E-01	 7.165E+02	 1.070E+01
    4.3000	 7.287E+00	-4.595E-02	-3.363E-02	 0.000E+00	 0.000E+00	 6.975E+00	 9.938E+02	 0.000E+00	 0.000E+00	 0.000E+00	 0.000E+00	 3.683E+00	 5.461E+00	-5.611E-02	 8.418E+00	 3.947E-01	 7.141E+02	 1.068E+01
    4.4000	 7.277E+00	 1.477E-02	-8.594E-02	 0.000E+00	 0.000E+00	 6.967E+00	 9.921E+02	 0.000E+00	 0.000E+00	 0.000E+00	 0.000E+00	 3.617E+00	 5.499E+00	-6.738E-02	 8.352E+00	 3.889E-01	 7.117E+02	 1.065E+01
    4.5000	 7.249E+00	 1.190E-02	 2.040E-02	 0.000E+00	 0.000E+00	 6.959E+00	 9.868E+02	 0.000E+00	 0.000E+00	 0.000E+00	 0.000E+00	 4.823E+00	 5.454E+00	-8.436E-02	 8.410E+00	 3.813E-01	 7.093E+02	 1.063E+01
    4.6000	 7.189E+00	-3.192E-02	-2.761E-03	 0.000E+00	 0.000E+00	 6.951E+00	 9.788E+02	 0.000E+00	 0.000E+00	 0.000E+00	 0.000E+00	 5.727E+00	 5.342E+00	-1.694E-01	 8.576E+00	 3.746E-01	 7.065E+02	 1.060E+01
    4.7000	 7.172E+00	-7.915E-02	-7.670E-02	 0.000E+00	 0.000E+00	 6.941E+00	 9.751E+02	 0.000E+00	 0.000E+00	 0.000E+00	 0.000E+00	 6.032E+00	 5.288E+00	-2.149E-01	 8.651E+00	 3.786E-01	 7.036E+02	 1.057E+01
    4.8000	 7.170E+00	-1.034E-01	-6.788E-02	 0.000E+00	 0.000E+00	 6.931E+00	 9.718E+02	 0.000E+00	 0.000E+00	 0.000E+00	 0.000E+00	 5.596E+00	 5.253E+00	-2.585E-01	 8.698E+00	 3.815E-01	 7.007E+02	 1.054E+01
    4.9000	 7.355E+00	-9.556E-02	-1.304E-01	 0.000E+00	 0.000E+00	 6.921E+00	 9.644E+02	 0.000E+00	 0.000E+00	 0.000E+00	 0.000E+00	 5.482E+00	 5.199E+00	-3.476E-01	 8.776E+00	 3.651E-01	 6.977E+02	 1.051E+01
    5.0000	 7.337E+00	-1.379E-01	-2.075E-01	 0.000E+00	 0.000E+00	 6.911E+00	 9.584E+02	 0.000E+00	 0.000E+00	 0.000E+00	 0.000E+00	 5.989E+00	 5.144E+00	-4.177E-01	 8.854E+00	 3.563E-01	 6.944E+02	 1.048E+01
    5.1000	 7.284E+00	-8.516E-02	-1.262E-01	 0.000E+00	 0.000E+00	 6.899E+00	 9.514E+02	 0.000E+00	 0.000E+00	 0.000E+00	 0.000E+00	 5.547E+00	 5.088E+00	-3.407E-01	 8.938E+00	 3.428E-01	 6.910E+02	 1.044E+01
    5.2000	 7.234E+00	 1.898E-02	-1.459E-01	 0.000E+00	 0.000E+00	 6.887E+00	 9.478E+02	 0.000E+00	 0.000E+00	 0.000E+00	 0.000E+00	 4.865E+00	 5.060E+00	-2.477E-01	 8.971E+00	 3.443E-01	 6.875E+02	 1.041E+01
    5.3000	 7.157E+00	 3.916E-02	-1.806E-01	 0.000E+00	 0.000E+00	 6.876E+00	 9.452E+02	 0.000E+00	 0.000E+00	 0.000E+00	 0.000E+00	 4.867E+00	 5.030E+00	-2.305E-01	 9.010E+00	 3.531E-01	 6.840E+02	 1.037E+01
    5.4000	 7.208E+00	-2.460E-02	-2.503E-01	 0.000E+00	 0.000E+00	 6.864E+00	 9.431E+02	 0.000E+00	 0.000E+00	 0.000E+00	 0.000E+00	 5.483E+00	 5.042E+00	-2.500E-01	 8.974E+00	 3.551E-01	 6.806E+02	 1.034E+01
    5.5000	 7.301E+00	-5.038E-02	-2.127E-01	 0.000E+00	 0.000E+00	 6.853E+00	 9.386E+02	 0.000E+00	 0.000E+00	 0.000E+00	 0.000E+00	 5.827E+00	 5.065E+00	-2.795E-01	 8.918E+00	 3.400E-01	 6.771E+02	 1.030E+01
    5.6000	 7.324E+00	-2.011E-01	-2.005E-01	 0.000E+00	 0.000E+00	 6.841E+00	 9.335E+02	 0.000E+00	 0.000E+00	 0.000E+00	 0.000E+00	 5.315E+00	 5.035E+00	-2.864E-01	 8.954E+00	 3.321E-01	 6.737E+02	 1.027E+01
    5.7000	 7.200E+00	-2.589E-01	-1.914E-01	 0.000E+00	 0.000E+00	 6.829E+00	 9.318E+02	 0.000E+00	 0.000E+00	 0.000E+00	 0.000E+00	 5.621E+00	 5.004E+00	-3.343E-01	 8.994E+00	 3.464E-01	 6.702E+02	 1.023E+01
    5.8000	 7.202E+00	-2.001E-01	-1.645E-01	 0.000E+00	 0.000E+00	 6.818E+00	 9.305E+02	 0.000E+00	 0.000E+00	 0.000E+00	 0.000E+00	 6.324E+00	 5.011E+00	-3.830E-01	 8.967E+00	 3.549E-01	 6.669E+02	 1.020E+01
    5.9000	 7.265E+00	-2.692E-01	-2.667E-01	 0.000E+00	 0.000E+00	 6.807E+00	 9.281E+02	 0.000E+00	 0.000E+00	 0.000E+00	 0.000E+00	 5.603E+00	 5.055E+00	-3.739E-01	 8.876E+00	 3.480E-01	 6.636E+02	 1.017E+01
    6.0000	 7.220E+00	-2.827E-01	-1.656E-01	 0.000E+00	 0.000E+00	 6.796E+00	 9.253E+02	 0.000E+00	 0.000E+00	 0.000E+00	 0.000E+00	 5.309E+00	 5.099E+00	-3.895E-01	 8.784E+00	 3.390E-01	 6.604E+02	 1.013E+01
    6.1000	 7.169E+00	-2.104E-01	-9.135E-02	 0.000E+00	 0.000E+00	 6.785E+00	 9.235E+02	 0.000E+00	 0.000E+00	 0.000E+00	 0.000E+00	 5.382E+00	 5.140E+00	-4.020E-01	 8.700E+00	 3.363E-01	 6.572E+02	 1.010E+01
    6.2000	 7.167E+00	-1.831E-01	-7.996E-02	 0.000E+00	 0.000E+00	 6.774E+00	 9.233E+02	 0.000E+00	 0.000E+00	 0.000E+00	 0.000E+00	 5.432E+00	 5.181E+00	-3.672E-01	 8.619E+00	 3.423E-01	 6.542E+02	 1.007E+01
    6.3000	 7.187E+00	-1.849E-01	 1.330E-01	 0.000E+00	 0.000E+00	 6.764E+00	 9.183E+02	 0.000E+00	 0.000E+00	 0.000E+00	 0.000E+00	 5.104E+00	 5.136E+00	-3.281E-01	 8.680E+00	 3.365E-01	 6.512E+02	 1.004E+01
    6.4000	 7.129E+00	-1.753E-01	 1.911E-01	 0.000E+00	 0.000E+00	 6.753E+00	 9.125E+02	 0.000E+00	 0.000E+00	 0.000E+00	 0.000E+00	 4.405E+00	 5.053E+00	-2.776E-01	 8.809E+00	 3.338E-01	 6.481E+02	 1.001E+01
    6.5000	 7.040E+00	-2.099E-01	 3.809E-03	 0.000E+00	 0.000E+00	 6.743E+00	 9.150E+02	 0.000E+00	 0.000E+00	 0.000E+00	 0.000E+00	 4.077E+00	 5.078E+00	-3.044E-01	 8.752E+00	 3.604E-01	 6.450E+02	 9.976E+00
    6.6000	 6.943E+00	-1.606E-01	-1.413E-01	 0.000E+00	 0.000E+00	 6.734E+00	 9.223E+02	 0.000E+00	 0.000E+00	 0.000E+00	 0.000E+00	 3.773E+00	 5.189E+00	-3.144E-01	 8.553E+00	 3.927E-01	 6.424E+02	 9.949E+00
    6.7000	 6.921E+00	-7.804E-02	-1.340E-01	 0.000E+00	 0.000E+00	 6.726E+00	 9.289E+02	 0.000E+00	 0.000E+00	 0.000E+00	 0.000E+00	 3.711E+00	 5.259E+00	-3.367E-01	 8.430E+00	 4.235E-01	 6.403E+02	 9.928E+00
    6.8000	 6.962E+00	-3.348E-02	-1.388E-01	 0.000E+00	 0.000E+00	 6.720E+00	 9.301E+02	 0.000E+00	 0.000E+00	 0.000E+00	 0.000E+00	 4.574E+00	 5.270E+00	-3.873E-01	 8.404E+00	 4.353E-01	 6.386E+02	 9.910E+00
    6.9000	 7.024E+00	-3.168E-02	-1.094E-01	 0.000E+00	 0.000E+00	 6.714E+00	 9.286E+02	 0.000E+00	 0.000E+00	 0.000E+00	 0.000E+00	 5.432E+00	 5.259E+00	-4.346E-01	 8.415E+00	 4.374E-01	 6.369E+02	 9.893E+00
    7.0000	 7.073E+00	-1.260E-02	-4.683E-02	 0.000E+00	 0.000E+00	 6.708E+00	 9.258E+02	 0.000E+00	 0.000E+00	 0.000E+00	 0.000E+00	 5.147E+00	 5.274E+00	-4.371E-01	 8.384E+00	 4.265E-01	 6.352E+02	 9.875E+00
    7.1000	 7.043E+00	 1.068E-02	-8.796E-02	 0.000E+00	 0.000E+00	 6.702E+00	 9.192E+02	 0.000E+00	 0.000E+00	 0.000E+00	 0.000E+00	 4.927E+00	 5.197E+00	-4.305E-01	 8.499E+00	 4.168E-01	 6.334E+02	 9.856E+00
    7.2000	 7.058E+00	 1.429E-01	-1.384E-01	 0.000E+00	 0.000E+00	 6.695E+00	 9.144E+02	 0.000E+00	 0.000E+00	 0.000E+00	 0.000E+00	 4.402E+00	 5.121E+00	-3.702E-01	 8.616E+00	 4.176E-01	 6.313E+02	 9.835E+00
    7.3000	 7.059E+00	 1.963E-01	-2.356E-01	 0.000E+00	 0.000E+00	 6.687E+00	 9.093E+02	 0.000E+00	 0.000E+00	 0.000E+00	 0.000E+00	 4.551E+00	 5.082E+00	-2.974E-01	 8.672E+00	 4.080E-01	 6.291E+02	 9.812E+00
    7.4000	 7.140E+00	 8.777E-02	-1.491E-01	 0.000E+00	 0.000E+00	 6.678E+00	 9.039E+02	 0.000E+00	 0.000E+00	 0.000E+00	 0.000E+00	 5.268E+00	 5.063E+00	-3.270E-01	 8.695E+00	 3.914E-01	 6.268E+02	 9.787E+00
    7.5000	 7.126E+00	 2.043E-02	-1.269E-01	 0.000E+00	 0.000E+00	 6.670E+00	 9.009E+02	 0.000E+00	 0.000E+00	 0.000E+00	 0.000E+00	 5.650E+00	 5.069E+00	-3.035E-01	 8.672E+00	 3.846E-01	 6.243E+02	 9.761E+00
    7.6000	 7.033E+00	 4.076E-02	-4.182E-02	 0.000E+00	 0.000E+00	 6.661E+00	 9.019E+02	 0.000E+00	 0.000E+00	 0.000E+00	 0.000E+00	 5.812E+00	 5.117E+00	-2.331E-01	 8.580E+00	 3.920E-01	 6.219E+02	 9.737E+00
    7.7000	 6.995E+00	-7.302E-02	-1.832E-01	 0.000E+00	 0.000E+00	 6.653E+00	 9.007E+02	 0.000E+00	 0.000E+00	 0.000E+00	 0.000E+00	 6.060E+00	 5.134E+00	-2.164E-01	 8.542E+00	 3.929E-01	 6.197E+02	 9.714E+00
    7.8000	 6.937E+00	-7.345E-02	-1.929E-01	 0.000E+00	 0.000E+00	 6.645E+00	 8.957E+02	 0.000E+00	 0.000E+00	 0.000E+00	 0.000E+00	 6.454E+00	 5.077E+00	-2.133E-01	 8.628E+00	 3.872E-01	 6.175E+02	 9.690E+00
    7.9000	 6.900E+00	 9.858E-03	-3.606E-02	 0.000E+00	 0.000E+00	 6.636E+00	 8.896E+02	 0.000E+00	 0.000E+00	 0.000E+00	 0.000E+00	 6.781E+00	 5.016E+00	-1.817E-01	 8.720E+00	 3.763E-01	 6.150E+02	 9.664E+00
    8.0000	 6.905E+00	 4.837E-02	-3.487E-02	 0.000E+00	 0.000E+00	 6.627E+00	 8.847E+02	 0.000E+00	 0.000E+00	 0.000E+00	 0.000E+00	 6.665E+00	 5.016E+00	-1.775E-01	 8.707E+00	 3.601E-01	 6.124E+02	 9.637E+00
    8.1000	 7.003E+00	-3.162E-02	 3.874E-02	 0.000E+00	 0.000E+00	 6.617E+00	 8.780E+02	 0.000E+00	 0.000E+00	 0.000E+00	 0.000E+00	 7.085E+00	 4.942E+00	-2.058E-01	 8.826E+00	 3.484E-01	 6.097E+02	 9.609E+00
    8.2000	 7.043E+00	 1.587E-02	 5.646E-02	 0.000E+00	 0.000E+00	 6.607E+00	 8.704E+02	 0.000E+00	 0.000E+00	 0.000E+00	 0.000E+00	 7.998E+00	 4.819E+00	-2.338E-01	 9.036E+00	 3.402E-01	 6.067E+02	 9.578E+00
    8.3000	 7.015E+00	 8.501E-02	 3.079E-02	 0.000E+00	 0.000E+00	 6.595E+00	 8.667E+02	 0.000E+00	 0.000E+00	 0.000E+00	 0.000E+00	 9.273E+00	 4.777E+00	-1.653E-01	 9.100E+00	 3.418E-01	 6.037E+02	 9.545E+00
    8.4000	 6.906E+00	 1.720E-01	-6.293E-02	 0.000E+00	 0.000E+00	 6.584E+00	 8.651E+02	 0.000E+00	 0.000E+00	 0.000E+00	 0.000E+00	 9.585E+00	 4.794E+00	-9.011E-02	 9.053E+00	 3.457E-01	 6.006E+02	 9.513E+00
    8.5000	 6.837E+00	 1.937E-01	-7.682E-02	 0.000E+00	 0.000E+00	 6.573E+00	 8.643E+02	 0.000E+00	 0.000E+00	 0.000E+00	 0.000E+00	 8.898E+00	 4.873E+00	-2.511E-02	 8.891E+00	 3.415E-01	 5.977E+02	 9.482E+00
    8.6000	 6.849E+00	 2.082E-01	-2.932E-02	 0.000E+00	 0.000E+00	 6.563E+00	 8.637E+02	 0.000E+00	 0.000E+00	 0.000E+00	 0.000E+00	 7.852E+00	 4.934E+00	 7.954E-02	 8.766E+00	 3.416E-01	 5.948E+02	 9.452E+00
    8.7000	 6.892E+00	 2.313E-01	 9.892E-03	 0.000E+00	 0.000E+00	 6.553E+00	 8.657E+02	 0.000E+00	 0.000E+00	 0.000E+00	 0.000E+00	 6.838E+00	 4.993E+00	 1.165E-01	 8.652E+00	 3.565E-01	 5.922E+02	 9.424E+00
    8.8000	 6.889E+00	 3.041E-01	 1.047E-01	 0.000E+00	 0.000E+00	 6.545E+00	 8.680E+02	 0.000E+00	 0.000E+00	 0.000E+00	 0.000E+00	 6.170E+00	 5.063E+00	 2.181E-01	 8.521E+00	 3.685E-01	 5.898E+02	 9.399E+00
    8.9000	 6.994E+00	 3.842E-01	 8.574E-02	 0.000E+00	 0.000E+00	 6.537E+00	 8.698E+02	 0.000E+00	 0.000E+00	 0.000E+00	 0.000E+00	 5.678E+00	 5.126E+00	 3.067E-01	 8.404E+00	 3.760E-01	 5.877E+02	 9.376E+00
    9.0000	 6.989E+00	 4.740E-01	 3.237E-02	 0.000E+00	 0.000E+00	 6.529E+00	 8.695E+02	 0.000E+00	 0.000E+00	 0.000E+00	 0.000E+00	 5.032E+00	 5.145E+00	 2.978E-01	 8.365E+00	 3.803E-01	 5.857E+02	 9.355E+00
    9.1000	 6.924E+00	 5.390E-01	-6.267E-02	 0.000E+00	 0.000E+00	 6.522E+00	 8.674E+02	 0.000E+00	 0.000E+00	 0.000E+00	 0.000E+00	 4.546E+00	 5.120E+00	 1.490E-01	 8.396E+00	 3.834E-01	 5.838E+02	 9.335E+00
    9.2000	 6.895E+00	 4.642E-01	-1.783E-01	 0.000E+00	 0.000E+00	 6.515E+00	 8.632E+02	 0.000E+00	 0.000E+00	 0.000E+00	 0.000E+00	 4.646E+00	 5.053E+00	 7.306E-02	 8.497E+00	 3.844E-01	 5.818E+02	 9.313E+00
    9.3000	 6.887E+00	 3.809E-01	-2.289E-01	 0.000E+00	 0.000E+00	 6.507E+00	 8.601E+02	 0.000E+00	 0.000E+00	 0.000E+00	 0.000E+00	 3.604E+00	 5.005E+00	 8.250E-02	 8.569E+00	 3.877E-01	 5.797E+02	 9.291E+00
    9.4000	 6.920E+00	 3.231E-01	-2.163E-01	 0.000E+00	 0.000E+00	 6.499E+00	 8.600E+02	 0.000E+00	 0.000E+00	 0.000E+00	 0.000E+00	 3.649E+00	 4.988E+00	 1.014E-01	 8.587E+00	 4.018E-01	 5.777E+02	 9.269E+00
    9.5000	 6.914E+00	 3.057E-01	-1.757E-01	 0.000E+00	 0.000E+00	 6.492E+00	 8.594E+02	 0.000E+00	 0.000E+00	 0.000E+00	 0.000E+00	 4.500E+00	 4.967E+00	 1.275E-01	 8.614E+00	 4.144E-01	 5.757E+02	 9.248E+00
    9.6000	 6.850E+00	 3.963E-01	-1.735E-01	 0.000E+00	 0.000E+00	 6.485E+00	 8.597E+02	 0.000E+00	 0.000E+00	 0.000E+00	 0.000E+00	 5.024E+00	 4.959E+00	 2.146E-01	 8.620E+00	 4.287E-01	 5.739E+02	 9.229E+00
    9.7000	 6.853E+00	 3.887E-01	-5.541E-02	 0.000E+00	 0.000E+00	 6.478E+00	 8.586E+02	 0.000E+00	 0.000E+00	 0.000E+00	 0.000E+00	 6.273E+00	 4.971E+00	 3.377E-01	 8.589E+00	 4.281E-01	 5.721E+02	 9.210E+00
    9.8000	 6.930E+00	 3.612E-01	 1.265E-02	 0.000E+00	 0.000E+00	 6.472E+00	 8.600E+02	 0.000E+00	 0.000E+00	 0.000E+00	 0.000E+00	 6.905E+00	 5.083E+00	 4.815E-01	 8.393E+00	 4.177E-01	 5.704E+02	 9.192E+00
    9.9000	 6.981E+00	 3.348E-01	 6.266E-02	 0.000E+00	 0.000E+00	 6.466E+00	 8.608E+02	 0.000E+00	 0.000E+00	 0.000E+00	 0.000E+00	 7.439E+00	 5.151E+00	 5.864E-01	 8.275E+00	 4.134E-01	 5.689E+02	 9.175E+00
   10.0000	 6.903E+00	 2.647E-01	 6.271E-02	 0.000E+00	 0.000E+00	 6.461E+00	 8.570E+02	 0.000E+00	 0.000E+00	 0.000E+00	 0.000E+00	 7.232E+00	 5.102E+00	 5.767E-01	 8.347E+00	 4.109E-01	 5.674E+02	 9.159E+00
   10.1000	 6.850E+00	 2.470E-01	 6.702E-02	 0.000E+00	 0.000E+00	 6.455E+00	 8.552E+02	 0.000E+00	 0.000E+00	 0.000E+00	 0.000E+00	 6.940E+00	 5.082E+00	 5.109E-01	 8.372E+00	 4.138E-01	 5.658E+02	 9.142E+00
   10.2000	 6.792E+00	 2.878E-01	 6.924E-02	 0.000E+00	 0.000E+00	 6.449E+00	 8.558E+02	 0.000E+00	 0.000E+00	 0.000E+00	 0.000E+00	 6.690E+00	 5.069E+00	 4.761E-01	 8.385E+00	 4.281E-01	 5.643E+02	 9.126E+00
   10.3000	 6.710E+00	 3.954E-01	 1.288E-01	 0.000E+00	 0.000E+00	 6.443E+00	 8.549E+02	 0.000E+00	 0.000E+00	 0.000E+00	 0.000E+00	 5.605E+00	 5.033E+00	 4.452E-01	 8.439E+00	 4.397E-01	 5.629E+02	 9.110E+00
   10.4000	 6.761E+00	 4.479E-01	 1.663E-01	 0.000E+00	 0.000E+00	 6.438E+00	 8.508E+02	 0.000E+00	 0.000E+00	 0.000E+00	 0.000E+00	 5.459E+00	 4.996E+00	 4.701E-01	 8.493E+00	 4.320E-01	 5.614E+02	 9.094E+00
   10.5000	 6.837E+00	 3.869E-01	 1.318E-01	 0.000E+00	 0.000E+00	 6.431E+00	 8.452E+02	 0.000E+00	 0.000E+00	 0.000E+00	 0.000E+00	 5.551E+00	 4.968E+00	 4.828E-01	 8.532E+00	 4.137E-01	 5.598E+02	 9.077E+00
   10.6000	 6.813E+00	 3.929E-01	 1.150E-01	 0.000E+00	 0.000E+00	 6.424E+00	 8.401E+02	 0.000E+00	 0.000E+00	 0.000E+00	 0.000E+00	 6.149E+00	 4.908E+00	 5.225E-01	 8.628E+00	 4.066E-01	 5.579E+02	 9.057E+00
   10.7000	 6.801E+00	 4.275E-01	 1.644E-01	 0.000E+00	 0.000E+00	 6.417E+00	 8.369E+02	 0.000E+00	 0.000E+00	 0.000E+00	 0.000E+00	 6.765E+00	 4.882E+00	 5.455E-01	 8.662E+00	 4.033E-01	 5.560E+02	 9.036E+00
   10.8000	 6.812E+00	 5.374E-01	 1.476E-01	 0.000E+00	 0.000E+00	 6.409E+00	 8.342E+02	 0.000E+00	 0.000E+00	 0.000E+00	 0.000E+00	 8.160E+00	 4.870E+00	 6.225E-01	 8.675E+00	 4.001E-01	 5.540E+02	 9.014E+00
   10.9000	 6.855E+00	 5.384E-01	 1.584E-01	 0.000E+00	 0.000E+00	 6.402E+00	 8.304E+02	 0.000E+00	 0.000E+00	 0.000E+00	 0.000E+00	 9.583E+00	 4.864E+00	 6.848E-01	 8.674E+00	 3.880E-01	 5.520E+02	 8.993E+00
   11.0000	 6.794E+00	 3.580E-01	 1.201E-01	 0.000E+00	 0.000E+00	 6.394E+00	 8.284E+02	 0.000E+00	 0.000E+00	 0.000E+00	 0.000E+00	 9.515E+00	 4.889E+00	 6.978E-01	 8.620E+00	 3.812E-01	 5.499E+02	 8.970E+00
   11.1000	 6.631E+00	 1.913E-01	 7.080E-02	 0.000E+00	 0.000E+00	 6.386E+00	 8.263E+02	 0.000E+00	 0.000E+00	 0.000E+00	 0.000E+00	 9.046E+00	 4.868E+00	 7.106E-01	 8.646E+00	 3.848E-01	 5.479E+02	 8.948E+00
   11.2000	 6.612E+00	 1.835E-01	 1.118E-01	 0.000E+00	 0.000E+00	 6.378E+00	 8.239E+02	 0.000E+00	 0.000E+00	 0.000E+00	 0.000E+00	 9.260E+00	 4.833E+00	 7.467E-01	 8.697E+00	 3.891E-01	 5.459E+02	 8.926E+00
   11.3000	 6.644E+00	 2.203E-01	 4.713E-02	 0.000E+00	 0.000E+00	 6.370E+00	 8.203E+02	 0.000E+00	 0.000E+00	 0.000E+00	 0.000E+00	 9.395E+00	 4.795E+00	 7.587E-01	 8.755E+00	 3.863E-01	 5.438E+02	 8.903E+00
   11.4000	 6.607E+00	 3.389E-01	 4.791E-02	 0.000E+00	 0.000E+00	 6.361E+00	 8.196E+02	 0.000E+00	 0.000E+00	 0.000E+00	 0.000E+00	 9.717E+00	 4.811E+00	 7.672E-01	 8.715E+00	 3.904E-01	 5.417E+02	 8.880E+00
   11.5000	 6.581E+00	 4.468E-01	 5.580E-02	 0.000E+00	 0.000E+00	 6.354E+00	 8.226E+02	 0.000E+00	 0.000E+00	 0.000E+00	 0.000E+00	 9.423E+00	 4.881E+00	 7.244E-01	 8.581E+00	 4.055E-01	 5.398E+02	 8.859E+00
   11.6000	 6.616E+00	 4.218E-01	-5.087E-02	 0.000E+00	 0.000E+00	 6.347E+00	 8.245E+02	 0.000E+00	 0.000E+00	 0.000E+00	 0.000E+00	 8.382E+00	 4.951E+00	 6.408E-01	 8.450E+00	 4.094E-01	 5.381E+02	 8.841E+00
   11.7000	 6.554E+00	 4.027E-01	-5.645E-02	 0.000E+00	 0.000E+00	 6.341E+00	 8.264E+02	 0.000E+00	 0.000E+00	 0.000E+00	 0.000E+00	 7.482E+00	 5.001E+00	 5.448E-01	 8.357E+00	 4.173E-01	 5.366E+02	 8.824E+00
   11.8000	 6.533E+00	 3.999E-01	 3.710E-02	 0.000E+00	 0.000E+00	 6.336E+00	 8.319E+02	 0.000E+00	 0.000E+00	 0.000E+00	 0.000E+00	 7.091E+00	 5.120E+00	 5.160E-01	 8.157E+00	 4.259E-01	 5.353E+02	 8.810E+00
   11.9000	 6.540E+00	 2.595E-01	 1.186E-01	 0.000E+00	 0.000E+00	 6.332E+00	 8.289E+02	 0.000E+00	 0.000E+00	 0.000E+00	 0.000E+00	 6.430E+00	 5.119E+00	 4.710E-01	 8.153E+00	 4.154E-01	 5.342E+02	 8.798E+00
   12.0000	 6.489E+00	 1.868E-01	 8.011E-02	 0.000E+00	 0.000E+00	 6.327E+00	 8.254E+02	 0.000E+00	 0.000E+00	 0.000E+00	 0.000E+00	 5.567E+00	 5.060E+00	 3.733E-01	 8.241E+00	 4.159E-01	 5.330E+02	 8.785E+00
   12.1000	 6.372E+00	 1.920E-01	 7.498E-02	 0.000E+00	 0.000E+00	 6.322E+00	 8.243E+02	 0.000E+00	 0.000E+00	 0.000E+00	 0.000E+00	 4.331E+00	 5.033E+00	 2.315E-01	 8.279E+00	 4.226E-01	 5.317E+02	 8.771E+00
   12.2000	 6.400E+00	 2.455E-01	 2.264E-01	 0.000E+00	 0.000E+00	 6.317E+00	 8.258E+02	 0.000E+00	 0.000E+00	 0.000E+00	 0.000E+00	 4.432E+00	 5.057E+00	 2.334E-01	 8.233E+00	 4.320E-01	 5.305E+02	 8.757E+00
   12.3000	 6.419E+00	 2.255E-01	 2.130E-01	 0.000E+00	 0.000E+00	 6.313E+00	 8.265E+02	 0.000E+00	 0.000E+00	 0.000E+00	 0.000E+00	 5.071E+00	 5.078E+00	 3.018E-01	 8.193E+00	 4.360E-01	 5.294E+02	 8.745E+00
   12.4000	 6.447E+00	 2.125E-01	 2.161E-01	 0.000E+00	 0.000E+00	 6.309E+00	 8.273E+02	 0.000E+00	 0.000E+00	 0.000E+00	 0.000E+00	 5.978E+00	 5.105E+00	 2.502E-01	 8.146E+00	 4.392E-01	 5.284E+02	 8.734E+00
   12.5000	 6.379E+00	 1.963E-01	 2.643E-01	 0.000E+00	 0.000E+00	 6.305E+00	 8.253E+02	 0.000E+00	 0.000E+00	 0.000E+00	 0.000E+00	 6.786E+00	 5.072E+00	 1.956E-01	 8.193E+00	 4.411E-01	 5.274E+02	 8.724E+00
   12.6000	 6.336E+00	 1.221E-01	 3.009E-01	 0.000E+00	 0.000E+00	 6.301E+00	 8.205E+02	 0.000E+00	 0.000E+00	 0.000E+00	 0.000E+00	 7.436E+00	 5.030E+00	 2.957E-01	 8.257E+00	 4.293E-01	 5.264E+02	 8.712E+00
   12.7000	 6.439E+00	 1.125E-01	 3.258E-01	 0.000E+00	 0.000E+00	 6.296E+00	 8.176E+02	 0.000E+00	 0.000E+00	 0.000E+00	 0.000E+00	 8.076E+00	 5.012E+00	 3.774E-01	 8.280E+00	 4.233E-01	 5.251E+02	 8.698E+00
   12.8000	 6.495E+00	 6.311E-02	 3.082E-01	 0.000E+00	 0.000E+00	 6.291E+00	 8.147E+02	 0.000E+00	 0.000E+00	 0.000E+00	 0.000E+00	 8.189E+00	 4.965E+00	 3.428E-01	 8.351E+00	 4.238E-01	 5.239E+02	 8.684E+00
   12.9000	 6.403E+00	-2.533E-01	 3.209E-01	 0.000E+00	 0.000E+00	 6.286E+00	 8.130E+02	 0.000E+00	 0.000E+00	 0.000E+00	 0.000E+00	 8.565E+00	 4.947E+00	 2.640E-01	 8.375E+00	 4.267E-01	 5.225E+02	 8.670E+00
   13.0000	 6.301E+00	-2.943E-01	 3.286E-01	 0.000E+00	 0.000E+00	 6.280E+00	 8.125E+02	 0.000E+00	 0.000E+00	 0.000E+00	 0.000E+00	 9.200E+00	 4.996E+00	 1.487E-01	 8.286E+00	 4.184E-01	 5.212E+02	 8.655E+00
   13.1000	 6.395E+00	-1.555E-01	 2.215E-01	 0.000E+00	 0.000E+00	 6.275E+00	 8.128E+02	 0.000E+00	 0.000E+00	 0.000E+00	 0.000E+00	 9.051E+00	 5.048E+00	 2.072E-02	 8.193E+00	 4.133E-01	 5.200E+02	 8.641E+00
   13.2000	 6.304E+00	-3.412E-02	 1.188E-01	 0.000E+00	 0.000E+00	 6.271E+00	 8.141E+02	 0.000E+00	 0.000E+00	 0.000E+00	 0.000E+00	 7.884E+00	 5.033E+00	 5.741E-02	 8.212E+00	 4.313E-01	 5.189E+02	 8.629E+00
   13.3000	 6.199E+00	 1.539E-02	 5.303E-02	 0.000E+00	 0.000E+00	 6.267E+00	 8.138E+02	 0.000E+00	 0.000E+00	 0.000E+00	 0.000E+00	 6.936E+00	 4.980E+00	 6.220E-02	 8.295E+00	 4.493E-01	 5.178E+02	 8.617E+00
   13.4000	 6.116E+00	 1.215E-01	-2.371E-02	 0.000E+00	 0.000E+00	 6.262E+00	 8.098E+02	 0.000E+00	 0.000E+00	 0.000E+00	 0.000E+00	 7.041E+00	 4.890E+00	 4.651E-02	 8.441E+00	 4.548E-01	 5.167E+02	 8.605E+00
   13.5000	 6.062E+00	 2.431E-01	-2.009E-02	 0.000E+00	 0.000E+00	 6.257E+00	 8.104E+02	 0.000E+00	 0.000E+00	 0.000E+00	 0.000E+00	 7.385E+00	 4.884E+00	-7.197E-02	 8.444E+00	 4.673E-01	 5.156E+02	 8.592E+00
   13.6000	 6.054E+00	 2.185E-01	-7.406E-03	 0.000E+00	 0.000E+00	 6.253E+00	 8.114E+02	 0.000E+00	 0.000E+00	 0.000E+00	 0.000E+00	 8.055E+00	 4.895E+00	-2.001E-01	 8.420E+00	 4.766E-01	 5.145E+02	 8.581E+00
   13.7000	 6.110E+00	 1.835E-01	 3.764E-02	 0.000E+00	 0.000E+00	 6.250E+00	 8.128E+02	 0.000E+00	 0.000E+00	 0.000E+00	 0.000E+00	 8.556E+00	 4.905E+00	-3.700E-01	 8.397E+00	 4.869E-01	 5.136E+02	 8.571E+00
   13.8000	 6.136E+00	 5.291E-02	-4.353E-02	 0.000E+00	 0.000E+00	 6.246E+00	 8.089E+02	 0.000E+00	 0.000E+00	 0.000E+00	 0.000E+00	 8.271E+00	 4.841E+00	-4.202E-01	 8.504E+00	 4.870E-01	 5.127E+02	 8.560E+00
   13.9000	 6.106E+00	-6.674E-02	-1.328E-01	 0.000E+00	 0.000E+00	 6.241E+00	 8.012E+02	 0.000E+00	 0.000E+00	 0.000E+00	 0.000E+00	 7.568E+00	 4.759E+00	-4.318E-01	 8.644E+00	 4.665E-01	 5.115E+02	 8.548E+00