
Predictions were generated on 14-Apr-2026 at 19:50:31 using FAST.Farm, compiled on Jan 27 2026 at 22:54:51 as a 64-bit application using single precision at commit v4.2.0
 linked with  NWTC Subroutine Library

Description from the FAST.Farm input file: FAST.Farm input file, using two turbines separated by 3D downstream and an offset of 30m, with a turbulent inflow given by one turbsim box

Time                	RtVRelT1            	RtVRelT2            	RtVRelT3            	RtVRelT4            	RtVRelT5            	RtVRelT6            	RtVRelT7            	RtVRelT8            	RtVRelT9            	YawErrT1            	YawErrT2            	YawErrT3            	YawErrT4            	YawErrT5            	YawErrT6            	YawErrT7            	YawErrT8            	YawErrT9            	RtCtAvgT1           	RtCtAvgT2           	RtCtAvgT3           	RtCtAvgT4           	RtCtAvgT5           	RtCtAvgT6           	RtCtAvgT7           	RtCtAvgT8           	RtCtAvgT9           	RtSkewT1            	RtSkewT2            	RtSkewT3            	RtSkewT4            	RtSkewT5            	RtSkewT6            	RtSkewT7            	RtSkewT8            	RtSkewT9            	RtPosXT1            	RtPosXT2            	RtPosXT3            	RtPosXT4            	RtPosXT5            	RtPosXT6            	RtPosXT7            	RtPosXT8            	RtPosXT9            	RtPosYT1            	RtPosYT2            	RtPosYT3            	RtPosYT4            	RtPosYT5            	RtPosYT6            	RtPosYT7            	RtPosYT8            	RtPosYT9            
(s)                 	(m/s)        	(m/s)        	(m/s)        	(m/s)        	(m/s)        	(m/s)        	(m/s)        	(m/s)        	(m/s)        	(deg)        	(deg)        	(deg)        	(deg)        	(deg)        	(deg)        	(deg)        	(deg)        	(deg)        	(-)          	(-)          	(-)          	(-)          	(-)          	(-)          	(-)          	(-)          	(-)          	(deg)        	(deg)        	(deg)        	(deg)        	(deg)        	(deg)        	(deg)        	(deg)        	(deg)        	(m)          	(m)          	(m)          	(m)          	(m)          	(m)          	(m)          	(m)          	(m)          	(m)          	(m)          	(m)          	(m)          	(m)          	(m)          	(m)          	(m)          	(m)          
    0.0000	 4.790E+00	 5.571E+00	 5.955E+00	 6.015E+00	 5.370E+00	 5.063E+00	 5.107E+00	 5.288E+00	 4.948E+00	 4.458E+00	-9.721E-02	-1.179E+00	-3.490E+00	 1.321E+00	-5.552E-01	-2.685E+00	 1.695E+00	-4.366E-01	 7.864E-01	 7.520E-01	 8.181E-01	 8.576E-01	 8.021E-01	 8.651E-01	 9.199E-01	 8.772E-01	 8.132E-01	 6.939E+00	 3.946E+00	 5.287E+00	 5.314E+00	 6.312E+00	 8.192E+00	 7.782E+00	 6.397E+00	 8.090E+00	 6.250E+02	 6.250E+02	 6.250E+02	-5.000E+00	-5.000E+00	-5.000E+00	-6.350E+02	-6.350E+02	-6.350E+02	-8.820E+02	 0.000E+00	 8.820E+02	-8.820E+02	 0.000E+00	 8.820E+02	-8.820E+02	 0.000E+00	 8.820E+02
    3.0000	 4.920E+00	 5.249E+00	 5.565E+00	 5.947E+00	 5.001E+00	 4.572E+00	 4.740E+00	 4.647E+00	 4.912E+00	 4.894E+00	-2.184E+00	-2.216E+00	-1.350E+00	 1.503E+00	 2.460E+00	-1.044E+00	 1.407E+00	 1.925E+00	 7.864E-01	 7.520E-01	 8.181E-01	 8.576E-01	 8.021E-01	 8.651E-01	 9.199E-01	 8.772E-01	 8.132E-01	 7.328E+00	 4.980E+00	 8.124E+00	 5.561E+00	 5.381E+00	 7.998E+00	 8.260E+00	 4.225E+00	 6.371E+00	 6.254E+02	 6.255E+02	 6.256E+02	-4.361E+00	-4.493E+00	-4.569E+00	-6.346E+02	-6.345E+02	-6.346E+02	-8.820E+02	 0.000E+00	 8.820E+02	-8.820E+02	 0.000E+00	 8.820E+02	-8.820E+02	 0.000E+00	 8.820E+02
    6.0000	 4.755E+00	 5.099E+00	 5.379E+00	 5.568E+00	 4.905E+00	 4.405E+00	 4.501E+00	 4.547E+00	 4.830E+00	 4.278E+00	-1.946E+00	 1.050E+00	-2.303E+00	 5.935E-01	 1.345E+00	-6.180E-01	 2.422E+00	 2.104E+00	 7.912E-01	 7.487E-01	 8.579E-01	 8.783E-01	 8.726E-01	 9.375E-01	 9.171E-01	 9.553E-01	 8.261E-01	 7.502E+00	 5.309E+00	 8.889E+00	 8.547E+00	 5.028E+00	 8.018E+00	 8.800E+00	 6.140E+00	 6.154E+00	 6.265E+02	 6.266E+02	 6.271E+02	-2.744E+00	-3.230E+00	-3.453E+00	-6.335E+02	-6.332E+02	-6.336E+02	-8.820E+02	 0.000E+00	 8.820E+02	-8.820E+02	 0.000E+00	 8.820E+02	-8.820E+02	 0.000E+00	 8.820E+02
    9.0000	 4.939E+00	 5.145E+00	 5.556E+00	 5.696E+00	 4.930E+00	 4.547E+00	 4.694E+00	 4.558E+00	 4.720E+00	 2.043E+00	 2.073E+00	 6.533E-01	-3.835E+00	-1.326E+00	 3.261E+00	-3.203E+00	 2.923E+00	 3.198E+00	 7.737E-01	 7.241E-01	 8.672E-01	 8.863E-01	 8.738E-01	 9.442E-01	 9.198E-01	 9.585E-01	 8.163E-01	 6.708E+00	 5.032E+00	 9.508E+00	 9.000E+00	 7.005E+00	 8.476E+00	 9.079E+00	 6.280E+00	 8.212E+00	 6.278E+02	 6.280E+02	 6.291E+02	-7.468E-01	-1.675E+00	-2.050E+00	-6.322E+02	-6.317E+02	-6.324E+02	-8.820E+02	 0.000E+00	 8.820E+02	-8.820E+02	 0.000E+00	 8.820E+02	-8.820E+02	 0.000E+00	 8.820E+02
   12.0000	 4.944E+00	 5.060E+00	 5.635E+00	 6.094E+00	 5.192E+00	 4.802E+00	 4.714E+00	 4.509E+00	 4.514E+00	 1.334E+00	-1.568E-01	-1.970E+00	-2.266E+00	-3.876E+00	 1.725E+00	-6.662E-01	 2.424E+00	 6.209E-01	 7.562E-01	 7.450E-01	 8.565E-01	 8.679E-01	 8.622E-01	 8.796E-01	 8.947E-01	 9.410E-01	 8.132E-01	 8.513E+00	 5.567E+00	 8.162E+00	 9.609E+00	 5.805E+00	 9.149E+00	 1.084E+01	 9.322E+00	 9.650E+00	 6.290E+02	 6.293E+02	 6.308E+02	 1.028E+00	-2.903E-01	-7.945E-01	-6.311E+02	-6.305E+02	-6.314E+02	-8.820E+02	 0.000E+00	 8.820E+02	-8.820E+02	 0.000E+00	 8.820E+02	-8.820E+02	 0.000E+00	 8.820E+02
   15.0000	 4.933E+00	 5.113E+00	 5.663E+00	 6.743E+00	 5.356E+00	 5.364E+00	 5.001E+00	 4.971E+00	 4.607E+00	 1.210E+00	-2.391E+00	-4.496E+00	-1.951E+00	-5.446E+00	 1.564E+00	 8.071E-01	 5.300E-01	 1.636E+00	 7.347E-01	 7.546E-01	 8.652E-01	 8.389E-01	 8.484E-01	 9.049E-01	 8.812E-01	 9.731E-01	 7.959E-01	 8.298E+00	 6.766E+00	 1.084E+01	 1.062E+01	 7.070E+00	 6.572E+00	 8.358E+00	 1.146E+01	 8.980E+00	 6.296E+02	 6.299E+02	 6.317E+02	 2.098E+00	 5.479E-01	-2.148E-02	-6.303E+02	-6.299E+02	-6.308E+02	-8.820E+02	 0.000E+00	 8.820E+02	-8.820E+02	 0.000E+00	 8.820E+02	-8.820E+02	 0.000E+00	 8.820E+02
   18.0000	 4.975E+00	 4.699E+00	 5.931E+00	 7.220E+00	 5.881E+00	 5.582E+00	 5.082E+00	 5.426E+00	 4.428E+00	 1.387E+00	 1.184E+00	-1.842E+00	-2.195E+00	-4.149E+00	 1.236E+00	 1.718E+00	 1.229E+00	-2.394E-01	 7.608E-01	 7.342E-01	 8.464E-01	 7.877E-01	 8.370E-01	 8.653E-01	 8.305E-01	 8.999E-01	 7.515E-01	 6.848E+00	 6.963E+00	 1.022E+01	 9.809E+00	 7.491E+00	 9.873E+00	 8.783E+00	 1.130E+01	 8.014E+00	 6.295E+02	 6.297E+02	 6.317E+02	 2.284E+00	 6.350E-01	 1.199E-01	-6.303E+02	-6.301E+02	-6.309E+02	-8.820E+02	 0.000E+00	 8.820E+02	-8.820E+02	 0.000E+00	 8.820E+02	-8.820E+02	 0.000E+00	 8.820E+02
   21.0000	 5.058E+00	 4.595E+00	 6.149E+00	 7.300E+00	 6.134E+00	 5.837E+00	 5.062E+00	 6.066E+00	 4.537E+00	 7.294E+00	-1.434E+00	-2.697E+00	 7.660E-01	-2.835E+00	 1.589E+00	-5.483E-01	-1.315E+00	-3.210E+00	 7.682E-01	 7.928E-01	 8.192E-01	 7.627E-01	 7.900E-01	 7.962E-01	 8.160E-01	 8.193E-01	 7.978E-01	 1.011E+01	 6.516E+00	 9.075E+00	 8.162E+00	 6.441E+00	 8.701E+00	 7.793E+00	 1.017E+01	 7.930E+00	 6.287E+02	 6.288E+02	 6.307E+02	 1.683E+00	 2.644E-02	-3.110E-01	-6.308E+02	-6.309E+02	-6.317E+02	-8.820E+02	 0.000E+00	 8.820E+02	-8.820E+02	 0.000E+00	 8.820E+02	-8.820E+02	 0.000E+00	 8.820E+02
   24.0000	 4.817E+00	 4.913E+00	 5.883E+00	 7.719E+00	 6.446E+00	 6.228E+00	 5.209E+00	 6.313E+00	 4.697E+00	 4.147E+00	 8.670E-01	-3.415E+00	 1.897E+00	-2.410E+00	 5.678E-01	 3.749E-01	-9.090E-01	-4.676E-02	 7.907E-01	 8.825E-01	 8.056E-01	 7.601E-01	 7.718E-01	 7.865E-01	 8.128E-01	 7.670E-01	 8.107E-01	 9.347E+00	 6.307E+00	 6.885E+00	 8.448E+00	 8.311E+00	 9.246E+00	 9.661E+00	 8.369E+00	 8.348E+00	 6.275E+02	 6.274E+02	 6.291E+02	 6.280E-01	-1.022E+00	-1.068E+00	-6.316E+02	-6.319E+02	-6.328E+02	-8.820E+02	 0.000E+00	 8.820E+02	-8.820E+02	 0.000E+00	 8.820E+02	-8.820E+02	 0.000E+00	 8.820E+02
   27.0000	 4.939E+00	 4.563E+00	 5.281E+00	 7.340E+00	 6.865E+00	 6.146E+00	 5.425E+00	 6.682E+00	 4.600E+00	 2.285E+00	 3.383E+00	-3.094E+00	-4.388E-01	 2.345E-01	 2.474E+00	-2.506E+00	-7.149E-01	 6.109E-01	 8.348E-01	 7.648E-01	 8.104E-01	 7.502E-01	 7.190E-01	 7.699E-01	 8.123E-01	 7.682E-01	 7.862E-01	 3.851E+00	 8.845E+00	 5.557E+00	 6.153E+00	 6.787E+00	 7.549E+00	 7.527E+00	 8.731E+00	 9.119E+00	 6.263E+02	 6.260E+02	 6.273E+02	-4.185E-01	-2.128E+00	-1.829E+00	-6.326E+02	-6.326E+02	-6.340E+02	-8.820E+02	 0.000E+00	 8.820E+02	-8.820E+02	 0.000E+00	 8.820E+02	-8.820E+02	 0.000E+00	 8.820E+02
   30.0000	 4.431E+00	 4.296E+00	 4.714E+00	 7.012E+00	 6.698E+00	 5.766E+00	 5.377E+00	 6.085E+00	 4.413E+00	 3.458E+00	 2.471E-01	-4.986E+00	-2.385E+00	 7.851E-01	 2.133E+00	-3.297E+00	 1.385E+00	 1.251E+00	 8.122E-01	 7.650E-01	 8.323E-01	 7.784E-01	 6.658E-01	 8.138E-01	 8.186E-01	 7.560E-01	 7.980E-01	 6.151E+00	 5.404E+00	 6.593E+00	 8.004E+00	 5.915E+00	 8.436E+00	 6.531E+00	 8.221E+00	 5.909E+00	 6.255E+02	 6.249E+02	 6.259E+02	-1.112E+00	-2.910E+00	-2.343E+00	-6.332E+02	-6.329E+02	-6.348E+02	-8.820E+02	 0.000E+00	 8.820E+02	-8.820E+02	 0.000E+00	 8.820E+02	-8.820E+02	 0.000E+00	 8.820E+02
   33.0000	 4.375E+00	 3.904E+00	 4.195E+00	 6.442E+00	 6.050E+00	 5.422E+00	 5.282E+00	 5.673E+00	 4.398E+00	 1.805E+00	 4.004E-01	-4.458E+00	-1.596E+00	-2.907E+00	 4.081E+00	-4.170E+00	 6.684E-01	 9.392E-01	 8.472E-01	 7.911E-01	 9.006E-01	 7.948E-01	 7.034E-01	 8.535E-01	 7.735E-01	 8.380E-01	 7.591E-01	 6.404E+00	 2.937E+00	 7.028E+00	 6.551E+00	 8.230E+00	 7.845E+00	 7.698E+00	 8.274E+00	 4.592E+00	 6.251E+02	 6.244E+02	 6.250E+02	-1.360E+00	-3.146E+00	-2.485E+00	-6.334E+02	-6.326E+02	-6.352E+02	-8.820E+02	 0.000E+00	 8.820E+02	-8.820E+02	 0.000E+00	 8.820E+02	-8.820E+02	 0.000E+00	 8.820E+02
   36.0000	 3.584E+00	 3.788E+00	 3.857E+00	 6.428E+00	 6.084E+00	 5.244E+00	 5.526E+00	 5.794E+00	 4.272E+00	 3.409E+00	-9.062E-01	-3.275E+00	 5.504E-01	-1.517E+00	 4.620E-01	-2.453E+00	-4.481E-01	 3.790E+00	 8.943E-01	 8.590E-01	 9.455E-01	 8.344E-01	 7.671E-01	 9.137E-01	 8.368E-01	 8.948E-01	 7.297E-01	 7.484E+00	 2.432E+00	 6.406E+00	 7.363E+00	 6.434E+00	 6.413E+00	 7.186E+00	 7.207E+00	 4.667E+00	 6.254E+02	 6.246E+02	 6.248E+02	-1.266E+00	-2.815E+00	-2.259E+00	-6.332E+02	-6.318E+02	-6.349E+02	-8.820E+02	 0.000E+00	 8.820E+02	-8.820E+02	 0.000E+00	 8.820E+02	-8.820E+02	 0.000E+00	 8.820E+02
   39.0000	 3.303E+00	 3.738E+00	 3.518E+00	 6.357E+00	 5.843E+00	 5.348E+00	 5.465E+00	 6.103E+00	 4.538E+00	 5.704E+00	 9.754E-02	-4.527E+00	 4.891E-01	 1.041E-01	 2.533E+00	 1.171E+00	 3.655E-01	-2.502E+00	 1.012E+00	 8.984E-01	 9.522E-01	 8.605E-01	 7.591E-01	 9.095E-01	 8.177E-01	 8.696E-01	 7.742E-01	 1.015E+01	 4.337E+00	 9.131E+00	 6.730E+00	 9.465E+00	 7.444E+00	 8.450E+00	 8.209E+00	 6.057E+00	 6.260E+02	 6.254E+02	 6.252E+02	-9.740E-01	-2.067E+00	-1.761E+00	-6.326E+02	-6.310E+02	-6.341E+02	-8.820E+02	 0.000E+00	 8.820E+02	-8.820E+02	 0.000E+00	 8.820E+02	-8.820E+02	 0.000E+00	 8.820E+02
   42.0000	 3.066E+00	 3.538E+00	 3.181E+00	 5.996E+00	 5.790E+00	 5.516E+00	 5.145E+00	 6.447E+00	 4.277E+00	 1.141E+01	-2.671E+00	-6.373E+00	-1.206E+00	-1.817E+00	 2.084E+00	 8.316E-01	 9.033E-01	-4.353E+00	 1.092E+00	 9.241E-01	 9.007E-01	 8.520E-01	 7.787E-01	 8.671E-01	 8.105E-01	 8.156E-01	 7.515E-01	 1.260E+01	 5.792E+00	 8.748E+00	 8.310E+00	 7.250E+00	 6.252E+00	 8.896E+00	 8.009E+00	 7.316E+00	 6.269E+02	 6.265E+02	 6.259E+02	-6.651E-01	-1.201E+00	-1.135E+00	-6.318E+02	-6.302E+02	-6.331E+02	-8.820E+02	 0.000E+00	 8.820E+02	-8.820E+02	 0.000E+00	 8.820E+02	-8.820E+02	 0.000E+00	 8.820E+02
   45.0000	 3.204E+00	 4.049E+00	 3.294E+00	 5.812E+00	 5.980E+00	 5.699E+00	 5.106E+00	 6.654E+00	 4.036E+00	 2.753E+00	 1.099E+00	 4.470E-01	-5.386E-02	-1.178E+00	 2.575E+00	 2.031E+00	-1.520E-03	 1.023E+00	 1.185E+00	 8.517E-01	 9.809E-01	 8.539E-01	 7.610E-01	 8.086E-01	 7.947E-01	 7.727E-01	 7.806E-01	 7.955E+00	 7.738E+00	 5.095E+00	 8.873E+00	 8.010E+00	 6.445E+00	 7.797E+00	 8.706E+00	 1.078E+01	 6.276E+02	 6.277E+02	 6.268E+02	-4.997E-01	-5.068E-01	-5.905E-01	-6.312E+02	-6.298E+02	-6.322E+02	-8.820E+02	 0.000E+00	 8.820E+02	-8.820E+02	 0.000E+00	 8.820E+02	-8.820E+02	 0.000E+00	 8.820E+02
   48.0000	 3.406E+00	 4.262E+00	 3.327E+00	 5.794E+00	 6.353E+00	 5.727E+00	 5.484E+00	 6.874E+00	 4.238E+00	 2.468E+00	-2.734E-01	-4.910E-02	-1.702E+00	-1.088E+00	 1.164E+00	-8.454E-01	-1.398E+00	-9.617E-01	 1.048E+00	 8.424E-01	 1.002E+00	 8.317E-01	 7.324E-01	 7.723E-01	 8.105E-01	 7.619E-01	 7.657E-01	 5.931E+00	 9.207E+00	 7.291E+00	 7.032E+00	 8.040E+00	 8.767E+00	 5.799E+00	 7.916E+00	 6.497E+00	 6.279E+02	 6.285E+02	 6.274E+02	-5.829E-01	-1.487E-01	-3.217E-01	-6.308E+02	-6.297E+02	-6.317E+02	-8.820E+02	 0.000E+00	 8.820E+02	-8.820E+02	 0.000E+00	 8.820E+02	-8.820E+02	 0.000E+00	 8.820E+02
   51.0000	 3.494E+00	 4.765E+00	 3.685E+00	 5.596E+00	 6.472E+00	 5.601E+00	 5.402E+00	 6.957E+00	 4.665E+00	 6.149E+00	-1.799E+00	-8.152E-01	 4.254E-01	-1.504E+00	 9.066E-01	 7.086E-01	-3.275E+00	-1.162E+00	 1.070E+00	 7.758E-01	 9.626E-01	 8.570E-01	 7.065E-01	 7.794E-01	 7.676E-01	 7.441E-01	 7.053E-01	 9.388E+00	 6.830E+00	 3.588E+00	 9.819E+00	 6.887E+00	 8.577E+00	 6.768E+00	 8.404E+00	 8.587E+00	 6.278E+02	 6.287E+02	 6.278E+02	-9.181E-01	-1.531E-01	-4.548E-01	-6.308E+02	-6.299E+02	-6.317E+02	-8.820E+02	 0.000E+00	 8.820E+02	-8.820E+02	 0.000E+00	 8.820E+02	-8.820E+02	 0.000E+00	 8.820E+02
   54.0000	 3.164E+00	 4.345E+00	 4.149E+00	 5.677E+00	 6.692E+00	 5.618E+00	 5.267E+00	 6.869E+00	 4.847E+00	 7.052E+00	-4.287E+00	 3.066E+00	-1.389E+00	-1.950E+00	 1.171E+00	 1.822E+00	-1.482E+00	-3.429E+00	 1.012E+00	 7.365E-01	 9.236E-01	 9.032E-01	 7.164E-01	 7.964E-01	 7.915E-01	 7.451E-01	 6.789E-01	 9.323E+00	 9.289E+00	 7.437E+00	 7.134E+00	 7.805E+00	 8.724E+00	 6.768E+00	 7.858E+00	 8.298E+00	 6.273E+02	 6.284E+02	 6.277E+02	-1.440E+00	-4.528E-01	-9.794E-01	-6.312E+02	-6.303E+02	-6.322E+02	-8.820E+02	 0.000E+00	 8.820E+02	-8.820E+02	 0.000E+00	 8.820E+02	-8.820E+02	 0.000E+00	 8.820E+02
   57.0000	 3.281E+00	 4.593E+00	 3.749E+00	 5.556E+00	 6.615E+00	 5.347E+00	 5.491E+00	 7.200E+00	 4.841E+00	 2.180E+00	 4.479E-01	 2.214E+00	 1.447E-01	 4.294E-01	 2.025E+00	 4.123E+00	 6.470E-01	 1.845E+00	 1.092E+00	 7.701E-01	 8.389E-01	 9.109E-01	 7.084E-01	 7.884E-01	 8.104E-01	 7.575E-01	 6.673E-01	 6.440E+00	 8.673E+00	 5.367E+00	 7.128E+00	 7.184E+00	 8.398E+00	 6.361E+00	 8.598E+00	 8.285E+00	 6.265E+02	 6.276E+02	 6.272E+02	-2.039E+00	-9.339E-01	-1.756E+00	-6.318E+02	-6.306E+02	-6.330E+02	-8.820E+02	 0.000E+00	 8.820E+02	-8.820E+02	 0.000E+00	 8.820E+02	-8.820E+02	 0.000E+00	 8.820E+02
   60.0000	 3.496E+00	 5.053E+00	 4.231E+00	 5.596E+00	 6.507E+00	 4.929E+00	 5.371E+00	 6.912E+00	 4.928E+00	 7.922E+00	-3.788E+00	-6.479E-01	-1.192E+00	-4.583E-01	 1.726E+00	 3.465E+00	-1.319E+00	 1.444E+00	 1.041E+00	 7.661E-01	 8.999E-01	 8.948E-01	 7.436E-01	 7.971E-01	 8.189E-01	 7.450E-01	 6.218E-01	 1.013E+01	 6.329E+00	 5.103E+00	 7.701E+00	 7.767E+00	 6.512E+00	 5.536E+00	 8.176E+00	 1.008E+01	 6.257E+02	 6.267E+02	 6.266E+02	-2.532E+00	-1.395E+00	-2.561E+00	-6.324E+02	-6.308E+02	-6.337E+02	-8.820E+02	 0.000E+00	 8.820E+02	-8.820E+02	 0.000E+00	 8.820E+02	-8.820E+02	 0.000E+00	 8.820E+02
   63.0000	 3.418E+00	 5.284E+00	 4.119E+00	 5.672E+00	 6.284E+00	 4.866E+00	 5.314E+00	 6.816E+00	 4.827E+00	 5.712E+00	-5.105E+00	 1.296E+00	-1.157E+00	-4.328E+00	-2.296E-01	 2.265E+00	-1.158E+00	 1.078E+00	 1.004E+00	 7.111E-01	 8.748E-01	 8.433E-01	 7.777E-01	 8.202E-01	 8.744E-01	 7.523E-01	 6.262E-01	 8.036E+00	 9.722E+00	 6.010E+00	 7.435E+00	 1.042E+01	 6.155E+00	 6.318E+00	 9.101E+00	 3.729E+00	 6.250E+02	 6.259E+02	 6.260E+02	-2.775E+00	-1.651E+00	-3.206E+00	-6.329E+02	-6.307E+02	-6.342E+02	-8.820E+02	 0.000E+00	 8.820E+02	-8.820E+02	 0.000E+00	 8.820E+02	-8.820E+02	 0.000E+00	 8.820E+02
   66.0000	 3.483E+00	 5.291E+00	 4.066E+00	 5.691E+00	 5.928E+00	 4.832E+00	 5.538E+00	 6.743E+00	 4.308E+00	 1.308E+00	-3.081E+00	-7.224E-01	 1.068E+00	-1.947E+00	-9.426E-01	 1.863E-01	 5.138E-02	 1.040E+00	 9.658E-01	 6.916E-01	 8.726E-01	 8.531E-01	 8.345E-01	 8.212E-01	 8.590E-01	 7.403E-01	 6.638E-01	 8.028E+00	 7.333E+00	 6.066E+00	 7.055E+00	 9.003E+00	 4.633E+00	 5.447E+00	 8.323E+00	 5.877E+00	 6.248E+02	 6.256E+02	 6.256E+02	-2.729E+00	-1.647E+00	-3.533E+00	-6.331E+02	-6.306E+02	-6.344E+02	-8.820E+02	 0.000E+00	 8.820E+02	-8.820E+02	 0.000E+00	 8.820E+02	-8.820E+02	 0.000E+00	 8.820E+02
   69.0000	 3.454E+00	 5.248E+00	 4.590E+00	 5.260E+00	 5.746E+00	 4.722E+00	 5.748E+00	 6.184E+00	 4.126E+00	 4.364E+00	 1.661E+00	-2.494E+00	 2.026E+00	-1.529E+00	 1.684E-01	 1.292E+00	 9.680E-01	 3.018E+00	 9.540E-01	 6.463E-01	 8.681E-01	 8.559E-01	 8.669E-01	 7.921E-01	 8.070E-01	 7.610E-01	 7.074E-01	 6.401E+00	 5.995E+00	 5.912E+00	 9.053E+00	 9.609E+00	 9.833E+00	 5.038E+00	 9.737E+00	 7.837E+00	 6.251E+02	 6.258E+02	 6.256E+02	-2.466E+00	-1.432E+00	-3.483E+00	-6.330E+02	-6.304E+02	-6.342E+02	-8.820E+02	 0.000E+00	 8.820E+02	-8.820E+02	 0.000E+00	 8.820E+02	-8.820E+02	 0.000E+00	 8.820E+02
   72.0000	 3.620E+00	 5.440E+00	 4.265E+00	 4.918E+00	 5.712E+00	 4.799E+00	 5.694E+00	 5.991E+00	 3.687E+00	 7.157E-01	 2.323E+00	-3.758E+00	 2.260E+00	-1.793E+00	 4.007E-02	 2.746E-01	-1.447E+00	-5.104E+00	 9.571E-01	 6.516E-01	 7.979E-01	 9.017E-01	 8.553E-01	 8.159E-01	 8.129E-01	 8.079E-01	 7.685E-01	 6.693E+00	 6.222E+00	 4.863E+00	 9.496E+00	 9.613E+00	 9.664E+00	 4.520E+00	 8.267E+00	 9.565E+00	 6.257E+02	 6.265E+02	 6.260E+02	-2.094E+00	-1.118E+00	-3.132E+00	-6.326E+02	-6.305E+02	-6.337E+02	-8.820E+02	 0.000E+00	 8.820E+02	-8.820E+02	 0.000E+00	 8.820E+02	-8.820E+02	 0.000E+00	 8.820E+02
   75.0000	 3.561E+00	 5.457E+00	 4.188E+00	 4.955E+00	 5.666E+00	 4.578E+00	 5.583E+00	 5.983E+00	 3.316E+00	 2.102E+00	-7.677E-01	 1.849E-01	 2.009E+00	-1.709E+00	-4.751E-02	-1.917E+00	-7.182E-01	-1.613E+00	 9.192E-01	 6.863E-01	 8.615E-01	 9.312E-01	 8.383E-01	 8.111E-01	 8.161E-01	 7.817E-01	 8.159E-01	 5.827E+00	 5.660E+00	 4.084E+00	 9.837E+00	 8.424E+00	 8.087E+00	 5.311E+00	 7.773E+00	 5.443E+00	 6.266E+02	 6.276E+02	 6.266E+02	-1.737E+00	-7.962E-01	-2.618E+00	-6.320E+02	-6.307E+02	-6.332E+02	-8.820E+02	 0.000E+00	 8.820E+02	-8.820E+02	 0.000E+00	 8.820E+02	-8.820E+02	 0.000E+00	 8.820E+02
   78.0000	 4.034E+00	 5.495E+00	 4.172E+00	 5.328E+00	 5.953E+00	 4.518E+00	 5.402E+00	 5.733E+00	 3.406E+00	-1.762E+00	 9.516E-01	-9.059E-01	 6.178E-01	-1.114E+00	 1.253E+00	-4.202E+00	 1.852E+00	-3.636E-01	 9.342E-01	 6.570E-01	 8.682E-01	 9.228E-01	 8.759E-01	 8.176E-01	 8.301E-01	 7.916E-01	 9.042E-01	 8.363E+00	 6.967E+00	 3.901E+00	 7.496E+00	 7.184E+00	 6.828E+00	 8.974E+00	 1.069E+01	 6.001E+00	 6.274E+02	 6.287E+02	 6.273E+02	-1.491E+00	-5.469E-01	-2.107E+00	-6.313E+02	-6.311E+02	-6.329E+02	-8.820E+02	 0.000E+00	 8.820E+02	-8.820E+02	 0.000E+00	 8.820E+02	-8.820E+02	 0.000E+00	 8.820E+02
   81.0000	 4.336E+00	 5.476E+00	 4.529E+00	 5.556E+00	 6.080E+00	 4.843E+00	 5.368E+00	 5.476E+00	 3.578E+00	 1.241E+00	 1.705E+00	-1.726E+00	 1.064E-01	-3.211E+00	-2.821E+00	-2.846E+00	 5.898E-01	 2.048E+00	 8.571E-01	 7.039E-01	 8.712E-01	 8.777E-01	 8.349E-01	 8.285E-01	 8.595E-01	 8.155E-01	 9.347E-01	 9.174E+00	 8.617E+00	 5.579E+00	 6.103E+00	 8.179E+00	 4.940E+00	 9.341E+00	 7.613E+00	 5.203E+00	 6.280E+02	 6.295E+02	 6.279E+02	-1.373E+00	-4.184E-01	-1.773E+00	-6.307E+02	-6.317E+02	-6.328E+02	-8.820E+02	 0.000E+00	 8.820E+02	-8.820E+02	 0.000E+00	 8.820E+02	-8.820E+02	 0.000E+00	 8.820E+02
   84.0000	 4.643E+00	 5.466E+00	 4.706E+00	 5.585E+00	 6.023E+00	 4.690E+00	 5.468E+00	 4.964E+00	 3.437E+00	 6.064E-01	 2.056E+00	-4.585E+00	 1.707E+00	 1.180E+00	 1.737E+00	-9.766E-01	-1.060E+00	 1.125E+00	 7.937E-01	 7.371E-01	 8.219E-01	 8.279E-01	 8.051E-01	 7.767E-01	 8.483E-01	 8.324E-01	 9.162E-01	 4.392E+00	 8.787E+00	 8.229E+00	 6.108E+00	 1.028E+01	 1.009E+01	 7.867E+00	 7.649E+00	 6.199E+00	 6.282E+02	 6.299E+02	 6.282E+02	-1.398E+00	-4.412E-01	-1.736E+00	-6.305E+02	-6.321E+02	-6.330E+02	-8.820E+02	 0.000E+00	 8.820E+02	-8.820E+02	 0.000E+00	 8.820E+02	-8.820E+02	 0.000E+00	 8.820E+02
   87.0000	 4.882E+00	 5.828E+00	 4.670E+00	 5.903E+00	 6.216E+00	 5.105E+00	 5.628E+00	 4.657E+00	 4.199E+00	 2.251E+00	 1.426E+00	-1.663E-01	 4.168E-01	-1.313E+00	 4.302E+00	-2.954E-01	-3.030E+00	 2.672E+00	 7.962E-01	 7.495E-01	 8.371E-01	 7.935E-01	 8.121E-01	 8.492E-01	 8.554E-01	 8.895E-01	 8.313E-01	 8.877E+00	 8.187E+00	 7.634E+00	 5.515E+00	 7.970E+00	 9.539E+00	 7.491E+00	 7.739E+00	 5.856E+00	 6.280E+02	 6.296E+02	 6.282E+02	-1.527E+00	-6.032E-01	-2.000E+00	-6.305E+02	-6.325E+02	-6.333E+02	-8.820E+02	 0.000E+00	 8.820E+02	-8.820E+02	 0.000E+00	 8.820E+02	-8.820E+02	 0.000E+00	 8.820E+02
   90.0000	 4.987E+00	 5.949E+00	 4.698E+00	 5.702E+00	 6.397E+00	 5.097E+00	 5.405E+00	 4.303E+00	 4.495E+00	 2.556E+00	 7.052E-01	-2.267E+00	 7.478E-01	 9.330E-01	 3.938E+00	-3.603E-01	-5.846E+00	-3.637E-01	 7.316E-01	 7.147E-01	 7.966E-01	 7.402E-01	 8.321E-01	 7.903E-01	 8.055E-01	 9.298E-01	 7.390E-01	 6.744E+00	 9.508E+00	 6.764E+00	 5.001E+00	 7.990E+00	 7.015E+00	 7.598E+00	 8.196E+00	 6.569E+00	 6.276E+02	 6.290E+02	 6.278E+02	-1.700E+00	-8.547E-01	-2.463E+00	-6.309E+02	-6.328E+02	-6.336E+02	-8.820E+02	 0.000E+00	 8.820E+02	-8.820E+02	 0.000E+00	 8.820E+02	-8.820E+02	 0.000E+00	 8.820E+02
   93.0000	 5.150E+00	 5.825E+00	 4.853E+00	 5.353E+00	 5.933E+00	 5.096E+00	 5.414E+00	 4.022E+00	 4.807E+00	 8.149E-01	 1.423E+00	 2.515E+00	 2.210E+00	-2.538E+00	 1.508E+00	-2.052E+00	-5.502E+00	 3.265E-01	 7.537E-01	 7.054E-01	 7.422E-01	 7.345E-01	 8.340E-01	 7.763E-01	 8.276E-01	 1.022E+00	 7.425E-01	 5.893E+00	 7.960E+00	 5.874E+00	 5.925E+00	 8.590E+00	 6.147E+00	 7.403E+00	 8.113E+00	 7.781E+00	 6.271E+02	 6.282E+02	 6.273E+02	-1.901E+00	-1.124E+00	-2.947E+00	-6.315E+02	-6.330E+02	-6.337E+02	-8.820E+02	 0.000E+00	 8.820E+02	-8.820E+02	 0.000E+00	 8.820E+02	-8.820E+02	 0.000E+00	 8.820E+02
   96.0000	 5.551E+00	 5.758E+00	 4.999E+00	 5.408E+00	 5.667E+00	 4.926E+00	 5.375E+00	 4.093E+00	 4.590E+00	-2.238E-01	-5.285E-01	 2.146E+00	-6.573E-01	-4.152E+00	 5.971E-01	-1.212E+00	-4.933E+00	 5.361E+00	 7.295E-01	 7.280E-01	 7.163E-01	 7.692E-01	 8.428E-01	 7.357E-01	 8.309E-01	 1.098E+00	 7.244E-01	 6.315E+00	 7.198E+00	 8.506E+00	 4.871E+00	 7.246E+00	 7.880E+00	 8.016E+00	 6.685E+00	 5.594E+00	 6.267E+02	 6.275E+02	 6.268E+02	-2.112E+00	-1.363E+00	-3.263E+00	-6.321E+02	-6.332E+02	-6.336E+02	-8.820E+02	 0.000E+00	 8.820E+02	-8.820E+02	 0.000E+00	 8.820E+02	-8.820E+02	 0.000E+00	 8.820E+02
   99.0000	 5.577E+00	 5.393E+00	 5.240E+00	 5.201E+00	 5.320E+00	 4.689E+00	 5.527E+00	 3.935E+00	 4.895E+00	-1.572E+00	 1.211E+00	-2.677E+00	-3.811E-01	-1.147E+00	-1.727E+00	-9.085E-01	-3.636E+00	 4.345E+00	 6.908E-01	 7.347E-01	 7.565E-01	 7.993E-01	 8.596E-01	 7.752E-01	 8.158E-01	 1.020E+00	 7.113E-01	 6.005E+00	 6.393E+00	 6.905E+00	 4.345E+00	 7.511E+00	 9.702E+00	 7.626E+00	 7.376E+00	 6.881E+00	 6.266E+02	 6.271E+02	 6.264E+02	-2.261E+00	-1.556E+00	-3.315E+00	-6.324E+02	-6.332E+02	-6.334E+02	-8.820E+02	 0.000E+00	 8.820E+02	-8.820E+02	 0.000E+00	 8.820E+02	-8.820E+02	 0.000E+00	 8.820E+02
  102.0000	 5.509E+00	 5.114E+00	 4.733E+00	 5.219E+00	 5.043E+00	 4.800E+00	 5.501E+00	 4.072E+00	 4.761E+00	-1.015E+00	 1.965E+00	-3.074E+00	 1.562E+00	 1.486E+00	-4.403E+00	 5.097E-01	-5.960E+00	 2.764E+00	 6.897E-01	 7.960E-01	 7.601E-01	 8.141E-01	 8.333E-01	 7.762E-01	 8.115E-01	 1.034E+00	 6.931E-01	 5.260E+00	 3.683E+00	 7.720E+00	 5.320E+00	 8.701E+00	 8.842E+00	 5.288E+00	 8.839E+00	 3.413E+00	 6.269E+02	 6.271E+02	 6.263E+02	-2.338E+00	-1.730E+00	-3.114E+00	-6.325E+02	-6.332E+02	-6.329E+02	-8.820E+02	 0.000E+00	 8.820E+02	-8.820E+02	 0.000E+00	 8.820E+02	-8.820E+02	 0.000E+00	 8.820E+02
  105.0000	 5.233E+00	 5.148E+00	 4.692E+00	 5.423E+00	 5.302E+00	 5.167E+00	 5.293E+00	 3.833E+00	 4.480E+00	 1.793E+00	 1.345E+00	-2.806E+00	 3.360E+00	 2.105E+00	-4.115E-01	-4.412E-01	-5.828E+00	 5.095E+00	 7.366E-01	 8.137E-01	 8.033E-01	 8.348E-01	 8.931E-01	 7.941E-01	 8.094E-01	 1.039E+00	 7.788E-01	 5.191E+00	 5.865E+00	 6.829E+00	 7.133E+00	 9.480E+00	 8.510E+00	 7.807E+00	 9.155E+00	 6.744E+00	 6.276E+02	 6.274E+02	 6.265E+02	-2.343E+00	-1.931E+00	-2.752E+00	-6.323E+02	-6.332E+02	-6.325E+02	-8.820E+02	 0.000E+00	 8.820E+02	-8.820E+02	 0.000E+00	 8.820E+02	-8.820E+02	 0.000E+00	 8.820E+02
  108.0000	 5.366E+00	 5.234E+00	 4.523E+00	 5.411E+00	 5.347E+00	 5.133E+00	 5.522E+00	 3.797E+00	 4.701E+00	 2.956E-01	 2.024E+00	 4.758E+00	 1.949E+00	 5.052E-01	 1.353E+00	 2.969E-01	-4.429E-01	 2.310E+00	 8.022E-01	 7.880E-01	 8.011E-01	 8.237E-01	 8.635E-01	 7.854E-01	 8.274E-01	 1.050E+00	 7.814E-01	 6.381E+00	 6.321E+00	 9.731E+00	 7.281E+00	 7.076E+00	 5.704E+00	 7.202E+00	 7.517E+00	 6.148E+00	 6.284E+02	 6.279E+02	 6.270E+02	-2.275E+00	-2.147E+00	-2.373E+00	-6.319E+02	-6.331E+02	-6.321E+02	-8.820E+02	 0.000E+00	 8.820E+02	-8.820E+02	 0.000E+00	 8.820E+02	-8.820E+02	 0.000E+00	 8.820E+02
  111.0000	 5.304E+00	 5.063E+00	 5.053E+00	 5.411E+00	 5.326E+00	 4.927E+00	 5.628E+00	 4.123E+00	 4.907E+00	-1.767E+00	 5.586E+00	-2.278E+00	-1.116E-01	 1.350E+00	-3.352E-02	 1.240E+00	-3.100E+00	 4.719E+00	 8.108E-01	 7.528E-01	 8.626E-01	 7.998E-01	 8.954E-01	 7.257E-01	 7.876E-01	 1.053E+00	 7.629E-01	 7.938E+00	 8.748E+00	 8.173E+00	 5.891E+00	 7.331E+00	 5.357E+00	 8.936E+00	 1.001E+01	 7.483E+00	 6.291E+02	 6.283E+02	 6.275E+02	-2.164E+00	-2.304E+00	-2.094E+00	-6.315E+02	-6.330E+02	-6.320E+02	-8.820E+02	 0.000E+00	 8.820E+02	-8.820E+02	 0.000E+00	 8.820E+02	-8.820E+02	 0.000E+00	 8.820E+02
  114.0000	 5.435E+00	 5.162E+00	 4.764E+00	 5.138E+00	 5.304E+00	 5.036E+00	 5.564E+00	 4.216E+00	 5.288E+00	-1.266E+00	 5.424E+00	-7.227E-01	-1.971E+00	 1.046E+00	-5.334E-01	 1.433E+00	-2.469E+00	 2.541E+00	 8.578E-01	 7.625E-01	 8.362E-01	 7.769E-01	 9.028E-01	 6.820E-01	 7.667E-01	 9.162E-01	 7.723E-01	 7.641E+00	 8.531E+00	 5.784E+00	 7.325E+00	 8.288E+00	 6.433E+00	 9.113E+00	 1.018E+01	 5.956E+00	 6.295E+02	 6.286E+02	 6.280E+02	-2.058E+00	-2.335E+00	-2.028E+00	-6.311E+02	-6.328E+02	-6.321E+02	-8.820E+02	 0.000E+00	 8.820E+02	-8.820E+02	 0.000E+00	 8.820E+02	-8.820E+02	 0.000E+00	 8.820E+02
  117.0000	 5.583E+00	 5.180E+00	 5.040E+00	 5.209E+00	 5.504E+00	 5.570E+00	 5.478E+00	 4.693E+00	 5.166E+00	-4.083E+00	 5.768E+00	-2.349E+00	-6.390E-01	 3.228E+00	-1.383E+00	 1.651E-01	-5.687E+00	 1.721E+00	 8.149E-01	 7.405E-01	 8.348E-01	 8.107E-01	 8.741E-01	 6.584E-01	 7.542E-01	 9.201E-01	 7.685E-01	 7.216E+00	 9.512E+00	 4.687E+00	 8.248E+00	 9.847E+00	 9.503E+00	 8.776E+00	 1.214E+01	 6.803E+00	 6.297E+02	 6.287E+02	 6.283E+02	-2.057E+00	-2.229E+00	-2.212E+00	-6.309E+02	-6.327E+02	-6.323E+02	-8.820E+02	 0.000E+00	 8.820E+02	-8.820E+02	 0.000E+00	 8.820E+02	-8.820E+02	 0.000E+00	 8.820E+02
  120.0000	 5.584E+00	 5.322E+00	 4.901E+00	 5.019E+00	 5.299E+00	 5.360E+00	 5.293E+00	 5.154E+00	 5.086E+00	-4.350E+00	 3.601E+00	-1.799E+00	 2.088E+00	 3.511E+00	 2.809E+00	-7.507E-02	-2.904E+00	 5.851E-01	 8.273E-01	 7.556E-01	 7.859E-01	 8.011E-01	 8.415E-01	 6.731E-01	 7.696E-01	 8.517E-01	 7.597E-01	 1.088E+01	 8.987E+00	 7.912E+00	 7.386E+00	 8.353E+00	 7.747E+00	 9.291E+00	 6.185E+00	 6.759E+00	 6.295E+02	 6.285E+02	 6.284E+02	-2.181E+00	-2.019E+00	-2.577E+00	-6.310E+02	-6.326E+02	-6.327E+02	-8.820E+02	 0.000E+00	 8.820E+02	-8.820E+02	 0.000E+00	 8.820E+02	-8.820E+02	 0.000E+00	 8.820E+02
  123.0000	 4.907E+00	 5.756E+00	 5.061E+00	 5.011E+00	 5.023E+00	 4.908E+00	 5.360E+00	 5.421E+00	 4.890E+00	-8.145E+00	 1.373E+00	 2.393E+00	-6.821E-01	 2.228E+00	 2.099E-01	-2.710E+00	-1.972E+00	 1.864E+00	 8.417E-01	 7.897E-01	 8.423E-01	 8.012E-01	 8.693E-01	 7.026E-01	 8.024E-01	 7.920E-01	 7.024E-01	 2.106E+01	 5.787E+00	 8.331E+00	 6.445E+00	 9.014E+00	 6.234E+00	 9.978E+00	 5.978E+00	 4.114E+00	 6.289E+02	 6.282E+02	 6.282E+02	-2.373E+00	-1.829E+00	-2.990E+00	-6.313E+02	-6.324E+02	-6.330E+02	-8.820E+02	 0.000E+00	 8.820E+02	-8.820E+02	 0.000E+00	 8.820E+02	-8.820E+02	 0.000E+00	 8.820E+02
  126.0000	 5.609E+00	 5.551E+00	 5.403E+00	 4.826E+00	 4.929E+00	 4.676E+00	 4.977E+00	 5.415E+00	 4.749E+00	-7.083E+00	-9.644E-01	 2.220E+00	 4.460E-01	 1.796E+00	-5.657E-01	-4.185E+00	-3.890E+00	 1.316E+00	 8.912E-01	 7.708E-01	 7.965E-01	 8.232E-01	 8.791E-01	 7.333E-01	 7.654E-01	 7.449E-01	 7.557E-01	 1.744E+01	 3.948E+00	 7.474E+00	 7.220E+00	 8.233E+00	 5.443E+00	 7.957E+00	 7.376E+00	 5.540E+00	 6.280E+02	 6.279E+02	 6.279E+02	-2.551E+00	-1.786E+00	-3.320E+00	-6.318E+02	-6.323E+02	-6.331E+02	-8.820E+02	 0.000E+00	 8.820E+02	-8.820E+02	 0.000E+00	 8.820E+02	-8.820E+02	 0.000E+00	 8.820E+02
  129.0000	 5.952E+00	 5.478E+00	 5.608E+00	 4.868E+00	 5.138E+00	 4.628E+00	 4.991E+00	 5.164E+00	 4.580E+00	-4.597E+00	-8.826E-01	 1.554E+00	 3.269E+00	 2.789E+00	-1.473E+00	-9.418E-01	-2.109E+00	 1.201E+00	 8.194E-01	 8.078E-01	 8.115E-01	 8.590E-01	 8.630E-01	 7.329E-01	 8.040E-01	 7.398E-01	 7.816E-01	 1.447E+01	 4.144E+00	 6.994E+00	 9.405E+00	 7.933E+00	 6.772E+00	 7.542E+00	 6.800E+00	 6.806E+00	 6.272E+02	 6.278E+02	 6.276E+02	-2.647E+00	-1.929E+00	-3.496E+00	-6.323E+02	-6.322E+02	-6.332E+02	-8.820E+02	 0.000E+00	 8.820E+02	-8.820E+02	 0.000E+00	 8.820E+02	-8.820E+02	 0.000E+00	 8.820E+02
  132.0000	 6.397E+00	 5.315E+00	 5.611E+00	 5.033E+00	 5.641E+00	 4.267E+00	 4.872E+00	 5.004E+00	 3.995E+00	-8.283E-01	-3.931E+00	-5.672E-01	 4.163E+00	 3.136E+00	 6.064E-01	-4.008E+00	-5.234E-01	 3.364E+00	 7.951E-01	 7.997E-01	 8.023E-01	 8.612E-01	 8.315E-01	 7.327E-01	 8.217E-01	 7.558E-01	 7.915E-01	 9.880E+00	 8.597E+00	 7.527E+00	 9.004E+00	 6.010E+00	 5.836E+00	 8.090E+00	 4.146E+00	 8.905E+00	 6.267E+02	 6.278E+02	 6.274E+02	-2.629E+00	-2.168E+00	-3.517E+00	-6.327E+02	-6.321E+02	-6.331E+02	-8.820E+02	 0.000E+00	 8.820E+02	-8.820E+02	 0.000E+00	 8.820E+02	-8.820E+02	 0.000E+00	 8.820E+02