FAST.Farm Summary File

Predictions were generated on 19-Apr-2026 at 10:31:06 using FAST.Farm, compiled on Jan 27 2026 at 22:54:51 as a 64-bit application using single precision at commit v4.2.0
  compiled with
    NWTC Subroutine Library
    FASTWrapper
    WakeDynamics
    AWAE

Description from the FAST.Farm input file: FAST.Farm input file, using two turbines separated by 3D downstream and an offset of 30m, with a turbulent inflow given by one turbsim box

Ambient Wind:
  Ambient wind model: One InflowWind Module
  InflowWind module input file: .\IW.dat

Wind Turbines: 9
  Turbine Number  Output Turbine Number      X          Y          Z   OpenFAST Time Step  OpenFAST SubCycles  OpenFAST Input File
        (-)                (-)              (m)        (m)        (m)          (S)             (-)                (-)
         1                 T1             882.000    630.000      0.000        0.00500         600          .\WT1/FFTest.fst
         2                 T2               0.000    630.000      0.000        0.00500         600          .\WT2/FFTest.fst
         3                 T3            -882.000    630.000      0.000        0.00500         600          .\WT3/FFTest.fst
         4                 T4             882.000      0.000      0.000        0.00500         600          .\WT4/FFTest.fst
         5                 T5               0.000      0.000      0.000        0.00500         600          .\WT5/FFTest.fst
         6                 T6            -882.000      0.000      0.000        0.00500         600          .\WT6/FFTest.fst
         7                 T7             882.000   -630.000      0.000        0.00500         600          .\WT7/FFTest.fst
         8                 T8               0.000   -630.000      0.000        0.00500         600          .\WT8/FFTest.fst
         9                 T9            -882.000   -630.000      0.000        0.00500         600          .\WT9/FFTest.fst

Wake Dynamics Finite-Difference Grid: 40 Radii, 136 Planes
  Radial Node Number  Output Node Number    Radius
         (-)                (-)              (m) 
           0                N1               0.000
           1                 -               5.000
           2                N2              10.000
           3                 -              15.000
           4                 -              20.000
           5                N3              25.000
           6                 -              30.000
           7                 -              35.000
           8                 -              40.000
           9                 -              45.000
          10                 -              50.000
          11                N4              55.000
          12                 -              60.000
          13                 -              65.000
          14                 -              70.000
          15                 -              75.000
          16                 -              80.000
          17                N5              85.000
          18                 -              90.000
          19                 -              95.000
          20                 -             100.000
          21                N6             105.000
          22                 -             110.000
          23                 -             115.000
          24                 -             120.000
          25                 -             125.000
          26                 -             130.000
          27                 -             135.000
          28                 -             140.000
          29                 -             145.000
          30                 -             150.000
          31                 -             155.000
          32                 -             160.000
          33                 -             165.000
          34                 -             170.000
          35                 -             175.000
          36                 -             180.000
          37                 -             185.000
          38                 -             190.000
          39                N7             195.000

Wake Dynamics Parameters
  Cut-off (corner) frequency of the low-pass time-filter for the wake advection, deflection, and meandering model (Hz): 0.17
    ( low-pass time-filter parameter (-): 4.05822E-02 )
  Calibrated parameter in the correction for wake deflection defining the horizontal offset at the rotor (m): 0
  Calibrated parameter in the correction for wake deflection defining the horizontal offset at the rotor scaled with yaw error (m/deg): 0.3
  Calibrated parameter in the correction for wake deflection defining the horizontal offset scaled with downstream distance (-):  0
  Calibrated parameter in the correction for wake deflection defining the horizontal offset scaled with downstream distance and yaw error (1/deg):  -4.00000E-03
  Calibrated parameter for near-wake correction (-): 1.8
  Calibrated parameter for the influence of ambient turbulence in the eddy viscosity (-):  5.00000E-02
  Calibrated parameter for the influence of the shear layer in the eddy viscosity (-):  1.60000E-02
  Calibrated parameter in the eddy viscosity filter function for ambient turbulence defining the transitional diameter fraction between the minimum and exponential regions (-):  0
  Calibrated parameter in the eddy viscosity filter function for ambient turbulence defining the transitional diameter fraction between the exponential and maximum regions (-):  1
  Calibrated parameter in the eddy viscosity filter function for ambient turbulence defining the value in the minimum region (-):  1
  Calibrated parameter in the eddy viscosity filter function for ambient turbulence defining the exponent in the exponential region (-):  1.00000E-02
  Calibrated parameter in the eddy viscosity filter function for the shear layer defining the transitional diameter fraction between the minimum and exponential regions (-):  3
  Calibrated parameter in the eddy viscosity filter function for the shear layer defining the transitional diameter fraction between the exponential and maximum regions (-): 25
  Calibrated parameter in the eddy viscosity filter function for the shear layer defining the functional value in the minimum region (-):  0.2
  Calibrated parameter in the eddy viscosity filter function for the shear layer defining the exponent in the exponential region (-):  0.1
  Wake diameter calculation model (-): 1
    ( rotor diameter )
  Calibrated parameter for wake diameter calculation (-): -         
  Spatial filter model for wake meandering (-): 3
    ( windowed jinc )
  Calibrated parameter for wake meandering (-): 1.9

  Wake-Added Turbulence (WAT):
    WAT_NxNyNz:        512      512       64
    WAT_DxDyDz:      10.170   10.170    5.200
    WAT_ScaleBox: .TRUE.
    coefficients:
                k_c      f_min    D_min    D_max    e
       k_Def    0.600    0.000    0.000    2.000    1.000
      k_Grad    3.000    0.000    0.000   12.000    0.650

Time Steps
  Component                        Time Step         Subcyles
    (-)                                (s)             (-)
  FAST.Farm (glue code)              3.0000             1
  Super Controller                   3.0000             1
  FAST Wrapper                       3.0000             1 (See table above for OpenFAST.)
  Wake Dynamics                      3.0000             1
  Ambient Wind and Array Effects     3.0000             1
  Low -resolution wind input         3.0000             1
  High-resolution wind input         0.0500            60
  Wind visualization output          3.0000             1^-1
  FAST.Farm output files             3.0000             1

Requested Channels in FAST.Farm Output Files: 55
  Number     Name         Units
     0       Time          (s)
     1       RtVRelT1      (m/s)         
     2       RtVRelT2      (m/s)         
     3       RtVRelT3      (m/s)         
     4       RtVRelT4      (m/s)         
     5       RtVRelT5      (m/s)         
     6       RtVRelT6      (m/s)         
     7       RtVRelT7      (m/s)         
     8       RtVRelT8      (m/s)         
     9       RtVRelT9      (m/s)         
    10       YawErrT1      (deg)         
    11       YawErrT2      (deg)         
    12       YawErrT3      (deg)         
    13       YawErrT4      (deg)         
    14       YawErrT5      (deg)         
    15       YawErrT6      (deg)         
    16       YawErrT7      (deg)         
    17       YawErrT8      (deg)         
    18       YawErrT9      (deg)         
    19       RtCtAvgT1     (-)           
    20       RtCtAvgT2     (-)           
    21       RtCtAvgT3     (-)           
    22       RtCtAvgT4     (-)           
    23       RtCtAvgT5     (-)           
    24       RtCtAvgT6     (-)           
    25       RtCtAvgT7     (-)           
    26       RtCtAvgT8     (-)           
    27       RtCtAvgT9     (-)           
    28       RtSkewT1      (deg)         
    29       RtSkewT2      (deg)         
    30       RtSkewT3      (deg)         
    31       RtSkewT4      (deg)         
    32       RtSkewT5      (deg)         
    33       RtSkewT6      (deg)         
    34       RtSkewT7      (deg)         
    35       RtSkewT8      (deg)         
    36       RtSkewT9      (deg)         
    37       RtPosXT1      (m)           
    38       RtPosXT2      (m)           
    39       RtPosXT3      (m)           
    40       RtPosXT4      (m)           
    41       RtPosXT5      (m)           
    42       RtPosXT6      (m)           
    43       RtPosXT7      (m)           
    44       RtPosXT8      (m)           
    45       RtPosXT9      (m)           
    46       RtPosYT1      (m)           
    47       RtPosYT2      (m)           
    48       RtPosYT3      (m)           
    49       RtPosYT4      (m)           
    50       RtPosYT5      (m)           
    51       RtPosYT6      (m)           
    52       RtPosYT7      (m)           
    53       RtPosYT8      (m)           
    54       RtPosYT9      (m)           
