
Predictions were generated on 17-Mar-2026 at 16:08:51 using FAST.Farm, compiled on Jan 27 2026 at 22:54:51 as a 64-bit application using single precision at commit v4.2.0
 linked with  NWTC Subroutine Library

Description from the FAST.Farm input file: FAST.Farm input file, using two turbines separated by 3D downstream and an offset of 30m, with a turbulent inflow given by one turbsim box

Time                	RtVAmbT1            	RtVAmbT2            	RtVRelT2            	YawErrT1            	YawErrT2            	CtT1N02             	CtT1N03             	CtT1N04             	CtT1N05             	CtT1N06             	WkAxsXT2D1          	WkAxsYT2D1          	WkAxsZT2D1          	WkPosXT2D1          	WkPosYT2D1          	WkPosZT2D1          	WkDfVxT1N01D1       	WkDfVxT1N02D1       	WkDfVxT1N03D1       	WkDfVxT1N04D1       	WkDfVxT1N05D1       	WkDfVxT1N06D1       	WkDfVxT1N07D1       	WkDfVrT1N01D1       	WkDfVrT1N02D1       	WkDfVrT1N03D1       	WkDfVrT1N04D1       	WkDfVrT1N05D1       	WkDfVrT1N06D1       	WkDfVrT1N07D1       	WkDfVxT2N01D1       	WkDfVxT2N02D1       	WkDfVxT2N03D1       	WkDfVxT2N04D1       	WkDfVxT2N05D1       	WkDfVxT2N06D1       	WkDfVxT2N07D1       	WkDfVrT2N01D1       	WkDfVrT2N02D1       	WkDfVrT2N03D1       	WkDfVrT2N04D1       	WkDfVrT2N05D1       	WkDfVrT2N06D1       	WkDfVrT2N07D1       
(s)                 	(m/s)        	(m/s)        	(m/s)        	(deg)        	(deg)        	(-)          	(-)          	(-)          	(-)          	(-)          	(-)          	(-)          	(-)          	(m)          	(m)          	(m)          	(m/s)        	(m/s)        	(m/s)        	(m/s)        	(m/s)        	(m/s)        	(m/s)        	(m/s)        	(m/s)        	(m/s)        	(m/s)        	(m/s)        	(m/s)        	(m/s)        	(m/s)        	(m/s)        	(m/s)        	(m/s)        	(m/s)        	(m/s)        	(m/s)        	(m/s)        	(m/s)        	(m/s)        	(m/s)        	(m/s)        	(m/s)        	(m/s)        
    0.0000	 6.975E+00	 5.700E+00	 6.078E+00	 1.011E+01	 9.113E+00	 5.065E-01	 7.786E-01	 8.152E-01	-2.320E-04	-9.680E-07	 0.000E+00	 0.000E+00	 0.000E+00	 0.000E+00	 0.000E+00	 0.000E+00	 0.000E+00	 0.000E+00	 0.000E+00	 0.000E+00	 0.000E+00	 0.000E+00	 0.000E+00	 0.000E+00	 0.000E+00	 0.000E+00	 0.000E+00	 0.000E+00	 0.000E+00	 0.000E+00	 0.000E+00	 0.000E+00	 0.000E+00	 0.000E+00	 0.000E+00	 0.000E+00	 0.000E+00	 0.000E+00	 0.000E+00	 0.000E+00	 0.000E+00	 0.000E+00	 0.000E+00	 0.000E+00
    3.0000	 6.975E+00	 5.700E+00	 5.908E+00	 7.985E+00	 5.298E+00	 4.620E-01	 8.518E-01	 7.520E-01	-2.136E-04	-8.913E-07	 0.000E+00	 0.000E+00	 0.000E+00	 0.000E+00	 0.000E+00	 0.000E+00	 0.000E+00	 0.000E+00	 0.000E+00	 0.000E+00	 0.000E+00	 0.000E+00	 0.000E+00	 0.000E+00	 0.000E+00	 0.000E+00	 0.000E+00	 0.000E+00	 0.000E+00	 0.000E+00	 0.000E+00	 0.000E+00	 0.000E+00	 0.000E+00	 0.000E+00	 0.000E+00	 0.000E+00	 0.000E+00	 0.000E+00	 0.000E+00	 0.000E+00	 0.000E+00	 0.000E+00	 0.000E+00
    6.0000	 7.184E+00	 5.633E+00	 5.834E+00	 6.809E+00	 6.095E+00	 4.936E-01	 7.801E-01	 8.338E-01	-2.330E-04	-9.725E-07	 0.000E+00	 0.000E+00	 0.000E+00	 0.000E+00	 0.000E+00	 0.000E+00	 0.000E+00	 0.000E+00	 0.000E+00	 0.000E+00	 0.000E+00	 0.000E+00	 0.000E+00	 0.000E+00	 0.000E+00	 0.000E+00	 0.000E+00	 0.000E+00	 0.000E+00	 0.000E+00	 0.000E+00	 0.000E+00	 0.000E+00	 0.000E+00	 0.000E+00	 0.000E+00	 0.000E+00	 0.000E+00	 0.000E+00	 0.000E+00	 0.000E+00	 0.000E+00	 0.000E+00	 0.000E+00
    9.0000	 7.261E+00	 5.676E+00	 5.542E+00	 1.138E+01	 1.377E+01	 4.915E-01	 7.760E-01	 8.702E-01	-2.464E-04	-1.028E-06	 0.000E+00	 0.000E+00	 0.000E+00	 0.000E+00	 0.000E+00	 0.000E+00	-1.827E+00	-2.662E+00	-3.711E+00	-3.642E+00	-2.885E-01	-7.264E-04	-1.031E-17	 0.000E+00	 8.449E-02	 1.730E-02	-1.274E-01	-3.894E-01	-2.968E-01	-1.598E-01	 0.000E+00	 0.000E+00	 0.000E+00	 0.000E+00	 0.000E+00	 0.000E+00	 0.000E+00	 0.000E+00	 0.000E+00	 0.000E+00	 0.000E+00	 0.000E+00	 0.000E+00	 0.000E+00
   12.0000	 7.314E+00	 5.877E+00	 5.743E+00	 9.685E+00	 8.539E+00	 4.890E-01	 8.355E-01	 7.819E-01	-2.165E-04	-9.035E-07	 9.962E-01	 0.000E+00	-8.716E-02	 9.403E+02	-6.212E+02	 9.111E+01	-2.156E+00	-2.765E+00	-3.662E+00	-3.439E+00	-3.197E-01	-1.656E-03	-5.698E-17	 0.000E+00	 7.093E-02	 2.870E-02	-1.456E-01	-3.153E-01	-2.366E-01	-1.273E-01	-1.456E+00	-2.107E+00	-3.113E+00	-3.505E+00	-4.665E-01	-1.555E-03	-3.832E-18	 0.000E+00	 6.779E-02	 4.379E-02	-1.411E-01	-5.402E-01	-4.409E-01	-2.373E-01
   15.0000	 7.211E+00	 6.002E+00	 6.078E+00	 7.596E+00	 8.283E+00	 4.857E-01	 7.993E-01	 7.914E-01	-2.149E-04	-8.969E-07	 9.962E-01	 0.000E+00	-8.716E-02	 9.405E+02	-6.189E+02	 9.286E+01	-2.267E+00	-2.806E+00	-3.648E+00	-3.362E+00	-3.327E-01	-2.354E-03	-1.449E-16	 0.000E+00	 6.487E-02	 3.081E-02	-1.477E-01	-2.936E-01	-2.191E-01	-1.178E-01	-1.587E+00	-2.160E+00	-3.106E+00	-3.384E+00	-4.591E-01	-2.237E-03	-1.132E-17	 0.000E+00	 6.192E-02	 4.553E-02	-1.532E-01	-4.769E-01	-3.849E-01	-2.071E-01
   18.0000	 7.123E+00	 6.126E+00	 6.465E+00	 9.131E+00	 8.266E+00	 5.554E-01	 8.516E-01	 6.668E-01	-1.802E-04	-7.521E-07	 9.962E-01	 0.000E+00	-8.716E-02	 9.406E+02	-6.162E+02	 9.452E+01	-2.212E+00	-2.821E+00	-3.830E+00	-3.285E+00	-2.828E-01	-1.865E-03	-1.434E-16	 0.000E+00	 7.444E-02	 3.953E-02	-2.127E-01	-3.419E-01	-2.617E-01	-1.408E-01	-1.699E+00	-2.206E+00	-3.101E+00	-3.284E+00	-4.547E-01	-2.968E-03	-2.189E-17	 0.000E+00	 5.733E-02	 4.607E-02	-1.600E-01	-4.266E-01	-3.413E-01	-1.835E-01
   21.0000	 7.185E+00	 6.374E+00	 6.356E+00	 8.518E+00	 9.469E+00	 4.833E-01	 8.072E-01	 8.213E-01	-2.350E-04	-9.805E-07	 9.962E-01	 0.000E+00	-8.716E-02	 9.407E+02	-6.146E+02	 9.479E+01	-2.207E+00	-2.800E+00	-3.690E+00	-3.447E+00	-3.208E-01	-1.883E-03	-1.128E-16	 0.000E+00	 6.679E-02	 2.765E-02	-1.452E-01	-3.002E-01	-2.256E-01	-1.213E-01	-1.739E+00	-2.223E+00	-3.099E+00	-3.247E+00	-4.551E-01	-3.322E-03	-1.953E-17	 0.000E+00	 5.583E-02	 4.605E-02	-1.611E-01	-4.115E-01	-3.284E-01	-1.766E-01
   24.0000	 7.282E+00	 6.707E+00	 6.841E+00	 6.080E+00	 1.113E+01	 4.662E-01	 8.440E-01	 8.372E-01	-2.337E-04	-9.752E-07	 9.962E-01	 8.765E-06	-8.742E-02	 9.405E+02	-6.151E+02	 9.279E+01	-2.107E+00	-2.692E+00	-3.528E+00	-3.464E+00	-3.068E-01	-1.640E-03	-8.930E-17	 0.000E+00	 6.154E-02	 2.175E-02	-1.152E-01	-2.772E-01	-2.070E-01	-1.113E-01	-1.589E+00	-1.985E+00	-2.602E+00	-3.080E+00	-3.932E-01	-2.276E-03	-1.747E-17	 0.000E+00	 4.186E-02	 2.846E-02	-1.006E-01	-3.514E-01	-2.782E-01	-1.496E-01
   27.0000	 7.342E+00	 7.004E+00	 7.479E+00	 1.002E+01	 9.070E+00	 4.909E-01	 7.452E-01	 8.787E-01	-2.426E-04	-1.012E-06	 9.961E-01	 9.576E-05	-8.877E-02	 9.405E+02	-6.161E+02	 9.143E+01	-2.184E+00	-2.860E+00	-3.895E+00	-3.531E+00	-3.005E-01	-1.573E-03	-9.223E-17	 0.000E+00	 7.134E-02	 3.310E-02	-1.724E-01	-3.154E-01	-2.387E-01	-1.284E-01	-1.656E+00	-2.025E+00	-2.532E+00	-2.535E+00	-2.846E-01	-2.388E-03	-1.658E-16	 0.000E+00	 4.327E-02	 1.218E-02	-5.395E-02	-1.693E-01	-1.174E-01	-6.299E-02
   30.0000	 7.478E+00	 7.194E+00	 7.618E+00	 5.925E+00	 8.871E+00	 4.671E-01	 8.100E-01	 8.446E-01	-2.406E-04	-1.004E-06	 9.960E-01	 8.311E-05	-8.972E-02	 9.406E+02	-6.176E+02	 9.170E+01	-2.283E+00	-2.956E+00	-4.013E+00	-3.571E+00	-2.827E-01	-1.365E-03	-5.467E-17	 0.000E+00	 7.387E-02	 3.823E-02	-2.137E-01	-3.794E-01	-2.939E-01	-1.582E-01	-1.477E+00	-1.859E+00	-2.440E+00	-2.238E+00	-1.588E-01	-1.259E-03	-1.728E-16	 0.000E+00	 4.325E-02	 1.835E-02	-7.782E-02	-1.186E-01	-8.198E-02	-4.402E-02
   33.0000	 7.666E+00	 7.261E+00	 7.886E+00	 8.579E+00	 1.069E+01	 5.198E-01	 8.456E-01	 8.282E-01	-2.278E-04	-9.505E-07	 9.960E-01	 5.357E-05	-8.988E-02	 9.405E+02	-6.187E+02	 9.129E+01	-2.502E+00	-3.170E+00	-4.176E+00	-3.307E+00	-2.326E-01	-1.016E-03	-3.744E-17	 0.000E+00	 7.744E-02	 3.100E-02	-2.420E-01	-3.567E-01	-2.770E-01	-1.491E-01	-1.357E+00	-1.718E+00	-2.238E+00	-1.781E+00	-7.130E-02	-4.093E-04	-1.811E-16	 0.000E+00	 4.087E-02	 1.170E-02	-7.236E-02	-6.713E-02	-4.641E-02	-2.495E-02
   36.0000	 7.673E+00	 7.312E+00	 7.887E+00	 8.683E+00	 9.070E+00	 4.453E-01	 7.546E-01	 8.978E-01	-2.630E-04	-1.097E-06	 9.960E-01	 4.533E-05	-8.919E-02	 9.404E+02	-6.183E+02	 9.080E+01	-2.286E+00	-2.966E+00	-3.946E+00	-3.458E+00	-2.792E-01	-1.145E-03	-3.442E-17	 0.000E+00	 7.047E-02	 2.460E-02	-1.641E-01	-3.031E-01	-2.302E-01	-1.238E-01	-1.211E+00	-1.500E+00	-1.811E+00	-1.476E+00	-4.488E-02	-2.851E-04	-3.647E-16	 0.000E+00	 3.144E-02	 1.797E-03	-5.263E-02	-3.897E-02	-2.640E-02	-1.419E-02
   39.0000	 7.534E+00	 7.201E+00	 7.826E+00	 1.118E+01	 9.684E+00	 4.344E-01	 7.431E-01	 1.105E+00	-3.210E-04	-1.340E-06	 9.960E-01	 4.539E-05	-8.885E-02	 9.404E+02	-6.196E+02	 9.069E+01	-2.044E+00	-2.831E+00	-4.006E+00	-3.778E+00	-3.136E-01	-1.103E-03	-2.527E-17	 0.000E+00	 7.225E-02	 3.570E-02	-1.907E-01	-3.976E-01	-3.108E-01	-1.673E-01	-1.236E+00	-1.441E+00	-1.492E+00	-1.066E+00	-2.294E-02	-1.422E-04	-4.621E-16	 0.000E+00	 2.053E-02	-1.261E-02	-3.804E-02	-1.822E-02	-1.199E-02	-6.442E-03
   42.0000	 7.487E+00	 7.124E+00	 8.067E+00	 9.816E+00	 9.761E+00	 3.184E-01	 8.205E-01	 1.203E+00	-3.375E-04	-1.408E-06	 9.961E-01	 3.184E-05	-8.837E-02	 9.404E+02	-6.199E+02	 9.049E+01	-1.884E+00	-2.613E+00	-3.533E+00	-3.613E+00	-2.870E-01	-7.994E-04	-7.148E-18	 0.000E+00	 5.747E-02	 1.385E-02	-8.441E-02	-2.517E-01	-1.880E-01	-1.011E-01	-1.107E+00	-1.278E+00	-1.203E+00	-7.487E-01	-1.177E-02	-6.254E-05	-1.951E-16	 0.000E+00	 1.474E-02	-1.939E-02	-2.744E-02	-9.004E-03	-5.864E-03	-3.152E-03
   45.0000	 7.340E+00	 7.202E+00	 7.703E+00	 7.936E+00	 7.383E+00	 3.630E-01	 7.648E-01	 1.154E+00	-3.433E-04	-1.432E-06	 9.961E-01	 6.260E-05	-8.794E-02	 9.403E+02	-6.207E+02	 9.023E+01	-1.879E+00	-2.716E+00	-3.878E+00	-3.808E+00	-3.191E-01	-8.851E-04	-6.773E-18	 0.000E+00	 6.571E-02	 2.471E-02	-1.184E-01	-2.875E-01	-2.170E-01	-1.168E-01	-8.832E-01	-1.005E+00	-8.643E-01	-4.470E-01	-5.926E-03	-2.815E-05	-1.216E-16	 0.000E+00	 8.915E-03	-1.946E-02	-1.611E-02	-3.890E-03	-2.432E-03	-1.307E-03
   48.0000	 7.007E+00	 7.282E+00	 7.779E+00	 9.205E+00	 6.981E+00	 3.366E-01	 6.914E-01	 1.191E+00	-3.508E-04	-1.464E-06	 9.962E-01	 5.023E-05	-8.758E-02	 9.403E+02	-6.195E+02	 9.033E+01	-2.012E+00	-2.911E+00	-4.005E+00	-3.696E+00	-3.230E-01	-8.999E-04	-6.072E-18	 0.000E+00	 6.778E-02	 8.024E-03	-8.506E-02	-2.291E-01	-1.674E-01	-9.009E-02	-8.952E-01	-9.930E-01	-7.510E-01	-1.977E-01	-2.184E-03	-1.013E-05	-1.666E-17	 0.000E+00	 6.004E-03	-2.687E-02	-1.078E-02	-2.661E-03	-1.890E-03	-1.017E-03
   51.0000	 6.721E+00	 7.345E+00	 7.838E+00	 3.385E+00	 8.411E+00	 3.823E-01	 6.991E-01	 1.176E+00	-3.531E-04	-1.474E-06	 9.962E-01	 3.686E-05	-8.733E-02	 9.403E+02	-6.195E+02	 8.998E+01	-1.746E+00	-2.617E+00	-3.804E+00	-4.218E+00	-5.544E-01	-1.572E-03	-7.058E-18	 0.000E+00	 6.119E-02	 2.851E-02	-1.043E-01	-3.787E-01	-2.981E-01	-1.604E-01	-9.021E-01	-9.530E-01	-6.610E-01	-9.352E-02	-7.577E-04	-3.496E-06	-7.475E-18	 0.000E+00	 1.507E-03	-2.761E-02	-8.466E-03	-2.277E-03	-1.750E-03	-9.420E-04
   54.0000	 6.571E+00	 7.492E+00	 8.041E+00	 8.029E+00	 5.663E+00	 4.278E-01	 7.195E-01	 1.101E+00	-2.867E-04	-1.196E-06	 9.962E-01	 2.287E-05	-8.719E-02	 9.402E+02	-6.197E+02	 8.985E+01	-1.443E+00	-2.279E+00	-3.542E+00	-4.540E+00	-7.807E-01	-3.095E-03	-3.969E-18	 0.000E+00	 5.561E-02	 4.162E-02	-1.091E-01	-4.433E-01	-3.575E-01	-1.923E-01	-8.451E-01	-8.580E-01	-5.704E-01	-8.959E-02	-5.752E-04	-2.556E-06	-6.146E-18	 0.000E+00	-2.139E-03	-2.286E-02	-7.492E-03	-1.627E-03	-1.247E-03	-6.711E-04
   57.0000	 6.448E+00	 7.671E+00	 7.596E+00	 1.096E+01	 7.597E+00	 4.558E-01	 7.262E-01	 1.041E+00	-2.706E-04	-1.129E-06	 9.962E-01	 1.772E-05	-8.718E-02	 9.402E+02	-6.206E+02	 8.951E+01	-1.142E+00	-1.869E+00	-2.934E+00	-4.444E+00	-1.156E+00	-8.761E-03	-4.293E-18	 0.000E+00	 4.380E-02	 3.131E-02	-2.935E-02	-3.750E-01	-3.046E-01	-1.634E-01	-6.695E-01	-7.233E-01	-5.679E-01	-1.659E-01	-1.205E-03	-5.070E-06	-9.191E-18	 0.000E+00	 2.389E-03	-1.416E-02	-8.680E-03	-1.182E-03	-8.126E-04	-4.371E-04
   60.0000	 6.331E+00	 7.670E+00	 7.668E+00	 9.464E+00	 8.144E+00	 4.822E-01	 6.637E-01	 1.023E+00	-2.906E-04	-1.213E-06	 9.962E-01	 1.025E-05	-8.732E-02	 9.402E+02	-6.210E+02	 8.983E+01	-1.276E+00	-1.909E+00	-3.076E+00	-4.296E+00	-1.425E+00	-8.854E-02	-7.890E-04	 0.000E+00	 4.376E-02	 4.141E-02	-3.374E-02	-3.021E-01	-2.385E-01	-1.280E-01	-6.361E-01	-7.475E-01	-6.886E-01	-2.627E-01	-1.748E-03	-6.336E-06	-4.556E-17	 0.000E+00	 7.394E-03	-1.091E-02	-1.156E-02	-1.567E-03	-1.064E-03	-5.723E-04
   63.0000	 6.173E+00	 7.536E+00	 6.695E+00	 9.587E+00	 7.354E+00	 5.024E-01	 6.346E-01	 9.501E-01	-2.628E-04	-1.096E-06	 9.962E-01	-1.786E-06	-8.748E-02	 9.403E+02	-6.210E+02	 9.008E+01	-1.184E+00	-1.835E+00	-3.019E+00	-4.247E+00	-1.370E+00	-7.935E-02	-6.468E-04	 0.000E+00	 4.545E-02	 4.022E-02	-2.955E-02	-3.075E-01	-2.421E-01	-1.296E-01	-7.383E-01	-8.881E-01	-8.372E-01	-3.703E-01	-2.361E-03	-7.674E-06	-3.236E-17	 0.000E+00	 9.501E-03	-1.164E-02	-1.465E-02	-2.350E-03	-1.633E-03	-8.785E-04
   66.0000	 5.814E+00	 7.486E+00	 6.082E+00	 1.112E+01	 7.133E+00	 5.128E-01	 7.288E-01	 1.008E+00	-2.944E-04	-1.229E-06	 9.962E-01	 3.992E-07	-8.767E-02	 9.403E+02	-6.207E+02	 9.002E+01	-9.663E-01	-1.637E+00	-2.796E+00	-4.203E+00	-1.145E+00	-1.105E-02	-6.777E-18	 0.000E+00	 4.478E-02	 3.891E-02	-3.240E-02	-3.364E-01	-2.659E-01	-1.424E-01	-7.453E-01	-9.655E-01	-1.018E+00	-4.835E-01	-3.278E-03	-1.023E-05	-2.209E-17	 0.000E+00	 1.486E-02	-9.817E-03	-1.760E-02	-3.506E-03	-2.471E-03	-1.330E-03
   69.0000	 5.708E+00	 7.326E+00	 6.314E+00	 1.046E+01	 8.035E+00	 5.610E-01	 7.073E-01	 9.494E-01	-2.692E-04	-1.123E-06	 9.961E-01	 1.560E-05	-8.771E-02	 9.403E+02	-6.199E+02	 9.008E+01	-8.150E-01	-1.413E+00	-2.596E+00	-4.198E+00	-1.200E+00	-1.322E-02	-5.663E-18	 0.000E+00	 3.966E-02	 4.919E-02	-4.753E-02	-3.601E-01	-2.929E-01	-1.569E-01	-7.848E-01	-1.046E+00	-1.155E+00	-6.160E-01	-4.487E-03	-1.241E-05	-1.455E-17	 0.000E+00	 1.757E-02	-9.030E-03	-1.935E-02	-4.696E-03	-3.300E-03	-1.776E-03
   72.0000	 5.630E+00	 6.991E+00	 6.171E+00	 7.107E+00	 6.623E+00	 5.983E-01	 8.083E-01	 8.478E-01	-2.162E-04	-9.021E-07	 9.961E-01	 3.911E-05	-8.785E-02	 9.404E+02	-6.197E+02	 9.104E+01	-9.089E-01	-1.481E+00	-2.547E+00	-3.989E+00	-1.162E+00	-1.548E-02	-1.073E-17	 0.000E+00	 3.985E-02	 4.542E-02	-4.369E-02	-3.418E-01	-2.760E-01	-1.476E-01	-6.630E-01	-9.415E-01	-1.186E+00	-7.462E-01	-5.328E-03	-1.285E-05	-1.012E-17	 0.000E+00	 1.871E-02	-3.561E-04	-2.327E-02	-5.933E-03	-4.200E-03	-2.261E-03
   75.0000	 5.673E+00	 6.711E+00	 5.913E+00	 9.180E+00	 6.201E+00	 5.091E-01	 7.026E-01	 1.047E+00	-2.642E-04	-1.102E-06	 9.961E-01	 2.246E-06	-8.795E-02	 9.403E+02	-6.200E+02	 9.042E+01	-1.032E+00	-1.618E+00	-2.656E+00	-3.955E+00	-1.156E+00	-1.655E-02	-1.290E-17	 0.000E+00	 4.204E-02	 4.387E-02	-4.502E-02	-3.461E-01	-2.815E-01	-1.505E-01	-6.682E-01	-1.027E+00	-1.412E+00	-1.031E+00	-8.600E-03	-1.970E-05	-1.357E-17	 0.000E+00	 2.421E-02	 1.765E-03	-2.649E-02	-1.061E-02	-7.620E-03	-4.102E-03
   78.0000	 5.853E+00	 6.548E+00	 5.881E+00	 7.956E+00	 5.657E+00	 4.790E-01	 7.417E-01	 1.003E+00	-2.786E-04	-1.162E-06	 9.961E-01	 1.825E-05	-8.804E-02	 9.403E+02	-6.206E+02	 9.040E+01	-1.155E+00	-1.745E+00	-2.726E+00	-3.912E+00	-9.969E-01	-1.253E-02	-9.961E-18	 0.000E+00	 4.301E-02	 3.968E-02	-5.283E-02	-3.588E-01	-2.898E-01	-1.552E-01	-6.717E-01	-1.125E+00	-1.647E+00	-1.363E+00	-1.370E-02	-3.182E-05	-1.870E-17	 0.000E+00	 3.090E-02	 2.342E-03	-3.142E-02	-1.946E-02	-1.421E-02	-7.648E-03
   81.0000	 6.000E+00	 6.444E+00	 5.855E+00	 8.347E+00	 8.881E+00	 5.020E-01	 7.902E-01	 9.919E-01	-2.840E-04	-1.185E-06	 9.961E-01	 2.321E-05	-8.812E-02	 9.404E+02	-6.205E+02	 9.109E+01	-1.236E+00	-1.791E+00	-2.657E+00	-3.787E+00	-7.780E-01	-6.028E-03	-6.967E-18	 0.000E+00	 4.061E-02	 3.482E-02	-6.220E-02	-3.630E-01	-2.898E-01	-1.556E-01	-7.143E-01	-1.178E+00	-1.731E+00	-1.561E+00	-1.833E-02	-4.504E-05	-1.357E-17	 0.000E+00	 3.156E-02	 5.556E-03	-3.734E-02	-2.611E-02	-1.909E-02	-1.028E-02
   84.0000	 6.120E+00	 6.325E+00	 5.887E+00	 8.974E+00	 7.742E+00	 5.193E-01	 7.366E-01	 9.015E-01	-2.335E-04	-9.743E-07	 9.961E-01	 2.196E-05	-8.819E-02	 9.405E+02	-6.202E+02	 9.213E+01	-1.309E+00	-1.794E+00	-2.527E+00	-3.574E+00	-5.827E-01	-3.391E-03	-6.081E-18	 0.000E+00	 3.719E-02	 3.179E-02	-7.325E-02	-3.549E-01	-2.789E-01	-1.499E-01	-7.527E-01	-1.219E+00	-1.807E+00	-1.718E+00	-2.311E-02	-5.003E-05	-8.407E-18	 0.000E+00	 3.152E-02	 8.834E-03	-4.314E-02	-3.350E-02	-2.451E-02	-1.320E-02
   87.0000	 6.354E+00	 6.154E+00	 6.194E+00	 8.277E+00	 6.845E+00	 5.004E-01	 6.629E-01	 9.605E-01	-2.656E-04	-1.108E-06	 9.961E-01	 2.746E-05	-8.826E-02	 9.405E+02	-6.201E+02	 9.266E+01	-1.620E+00	-2.046E+00	-2.545E+00	-2.936E+00	-4.575E-01	-3.152E-03	-1.787E-17	 0.000E+00	 4.056E-02	 7.414E-03	-3.079E-02	-2.289E-01	-1.655E-01	-8.880E-02	-8.082E-01	-1.310E+00	-1.981E+00	-1.923E+00	-3.566E-02	-7.278E-05	-3.809E-18	 0.000E+00	 3.351E-02	 1.207E-02	-4.983E-02	-4.416E-02	-3.191E-02	-1.718E-02
   90.0000	 6.683E+00	 5.797E+00	 5.798E+00	 9.431E+00	 9.537E+00	 4.703E-01	 7.971E-01	 8.851E-01	-2.491E-04	-1.040E-06	 9.961E-01	 3.662E-05	-8.824E-02	 9.406E+02	-6.201E+02	 9.284E+01	-1.707E+00	-2.092E+00	-2.625E+00	-2.633E+00	-2.922E-01	-2.089E-03	-4.439E-17	 0.000E+00	 4.320E-02	 1.544E-02	-6.636E-02	-1.844E-01	-1.304E-01	-6.999E-02	-8.810E-01	-1.410E+00	-2.228E+00	-2.162E+00	-5.460E-02	-1.281E-04	-6.185E-18	 0.000E+00	 3.795E-02	 1.992E-02	-6.789E-02	-7.023E-02	-5.121E-02	-2.756E-02
