
Predictions were generated on 24-Feb-2026 at 13:06:53 using FAST.Farm, compiled on Jan 27 2026 at 22:54:51 as a 64-bit application using single precision at commit v4.2.0
 linked with  NWTC Subroutine Library

Description from the FAST.Farm input file: FAST.Farm input file, using two turbines separated by 3D downstream and an offset of 30m, with a turbulent inflow given by one turbsim box

Time                	RtVAmbT1            	RtVAmbT2            	RtVRelT2            	YawErrT1            	YawErrT2            	CtT1N02             	CtT1N03             	CtT1N04             	CtT1N05             	CtT1N06             	WkAxsXT2D1          	WkAxsYT2D1          	WkAxsZT2D1          	WkPosXT2D1          	WkPosYT2D1          	WkPosZT2D1          	WkDfVxT1N01D1       	WkDfVxT1N02D1       	WkDfVxT1N03D1       	WkDfVxT1N04D1       	WkDfVxT1N05D1       	WkDfVxT1N06D1       	WkDfVxT1N07D1       	WkDfVrT1N01D1       	WkDfVrT1N02D1       	WkDfVrT1N03D1       	WkDfVrT1N04D1       	WkDfVrT1N05D1       	WkDfVrT1N06D1       	WkDfVrT1N07D1       	WkDfVxT2N01D1       	WkDfVxT2N02D1       	WkDfVxT2N03D1       	WkDfVxT2N04D1       	WkDfVxT2N05D1       	WkDfVxT2N06D1       	WkDfVxT2N07D1       	WkDfVrT2N01D1       	WkDfVrT2N02D1       	WkDfVrT2N03D1       	WkDfVrT2N04D1       	WkDfVrT2N05D1       	WkDfVrT2N06D1       	WkDfVrT2N07D1       
(s)                 	(m/s)        	(m/s)        	(m/s)        	(deg)        	(deg)        	(-)          	(-)          	(-)          	(-)          	(-)          	(-)          	(-)          	(-)          	(m)          	(m)          	(m)          	(m/s)        	(m/s)        	(m/s)        	(m/s)        	(m/s)        	(m/s)        	(m/s)        	(m/s)        	(m/s)        	(m/s)        	(m/s)        	(m/s)        	(m/s)        	(m/s)        	(m/s)        	(m/s)        	(m/s)        	(m/s)        	(m/s)        	(m/s)        	(m/s)        	(m/s)        	(m/s)        	(m/s)        	(m/s)        	(m/s)        	(m/s)        	(m/s)        
    0.0000	 6.465E+00	 6.989E+00	 7.325E+00	 6.281E+00	 8.636E+00	 6.006E-01	 6.964E-01	 9.735E-01	-2.741E-04	-1.144E-06	 0.000E+00	 0.000E+00	 0.000E+00	 0.000E+00	 0.000E+00	 0.000E+00	 0.000E+00	 0.000E+00	 0.000E+00	 0.000E+00	 0.000E+00	 0.000E+00	 0.000E+00	 0.000E+00	 0.000E+00	 0.000E+00	 0.000E+00	 0.000E+00	 0.000E+00	 0.000E+00	 0.000E+00	 0.000E+00	 0.000E+00	 0.000E+00	 0.000E+00	 0.000E+00	 0.000E+00	 0.000E+00	 0.000E+00	 0.000E+00	 0.000E+00	 0.000E+00	 0.000E+00	 0.000E+00
    3.0000	 6.465E+00	 6.989E+00	 7.076E+00	 6.730E+00	 3.829E+00	 5.228E-01	 6.493E-01	 9.783E-01	-2.703E-04	-1.128E-06	 0.000E+00	 0.000E+00	 0.000E+00	 0.000E+00	 0.000E+00	 0.000E+00	 0.000E+00	 0.000E+00	 0.000E+00	 0.000E+00	 0.000E+00	 0.000E+00	 0.000E+00	 0.000E+00	 0.000E+00	 0.000E+00	 0.000E+00	 0.000E+00	 0.000E+00	 0.000E+00	 0.000E+00	 0.000E+00	 0.000E+00	 0.000E+00	 0.000E+00	 0.000E+00	 0.000E+00	 0.000E+00	 0.000E+00	 0.000E+00	 0.000E+00	 0.000E+00	 0.000E+00	 0.000E+00
    6.0000	 6.424E+00	 6.699E+00	 7.002E+00	 5.426E+00	 6.369E+00	 5.316E-01	 6.749E-01	 9.701E-01	-2.705E-04	-1.129E-06	 0.000E+00	 0.000E+00	 0.000E+00	 0.000E+00	 0.000E+00	 0.000E+00	 0.000E+00	 0.000E+00	 0.000E+00	 0.000E+00	 0.000E+00	 0.000E+00	 0.000E+00	 0.000E+00	 0.000E+00	 0.000E+00	 0.000E+00	 0.000E+00	 0.000E+00	 0.000E+00	 0.000E+00	 0.000E+00	 0.000E+00	 0.000E+00	 0.000E+00	 0.000E+00	 0.000E+00	 0.000E+00	 0.000E+00	 0.000E+00	 0.000E+00	 0.000E+00	 0.000E+00	 0.000E+00
    9.0000	 6.359E+00	 6.588E+00	 6.600E+00	 9.155E+00	 7.216E+00	 4.977E-01	 7.870E-01	 9.671E-01	-2.592E-04	-1.082E-06	 9.962E-01	 0.000E+00	-8.716E-02	 4.362E+02	 9.973E+00	 8.988E+01	-1.422E+00	-2.340E+00	-2.960E+00	-3.485E+00	-3.358E-01	-2.725E-04	-2.107E-19	 0.000E+00	 6.119E-02	-3.249E-02	-1.051E-02	-4.368E-01	-3.569E-01	-1.922E-01	-1.270E+00	-2.357E+00	-3.820E+00	-4.434E+00	-6.251E-01	-1.012E-03	-6.297E-19	 0.000E+00	 7.651E-02	 3.716E-02	-1.258E-01	-5.707E-01	-4.669E-01	-2.513E-01
   12.0000	 6.416E+00	 6.492E+00	 6.495E+00	 7.185E+00	 7.723E+00	 4.563E-01	 7.394E-01	 9.617E-01	-2.732E-04	-1.140E-06	 9.962E-01	 0.000E+00	-8.716E-02	 4.363E+02	 1.296E+01	 9.115E+01	-1.664E+00	-2.382E+00	-2.928E+00	-3.348E+00	-3.435E-01	-5.614E-04	-8.633E-19	 0.000E+00	 5.113E-02	-1.659E-02	-2.788E-02	-3.035E-01	-2.356E-01	-1.268E-01	-1.509E+00	-2.443E+00	-3.799E+00	-4.262E+00	-5.916E-01	-1.478E-03	-1.637E-18	 0.000E+00	 6.870E-02	 4.002E-02	-1.434E-01	-4.949E-01	-4.008E-01	-2.157E-01
   15.0000	 6.572E+00	 6.467E+00	 6.849E+00	 5.275E+00	 7.041E+00	 4.117E-01	 7.887E-01	 9.499E-01	-2.536E-04	-1.058E-06	 9.962E-01	 0.000E+00	-8.716E-02	 4.364E+02	 1.510E+01	 9.199E+01	-1.831E+00	-2.413E+00	-2.909E+00	-3.248E+00	-3.623E-01	-1.000E-03	-1.824E-18	 0.000E+00	 4.305E-02	-6.946E-03	-3.606E-02	-2.354E-01	-1.751E-01	-9.422E-02	-1.632E+00	-2.489E+00	-3.789E+00	-4.166E+00	-5.811E-01	-1.844E-03	-1.789E-18	 0.000E+00	 6.416E-02	 4.196E-02	-1.499E-01	-4.524E-01	-3.635E-01	-1.956E-01
   18.0000	 6.746E+00	 6.540E+00	 6.880E+00	 7.218E+00	 7.750E+00	 3.841E-01	 6.710E-01	 1.020E+00	-2.860E-04	-1.193E-06	 9.962E-01	 0.000E+00	-8.716E-02	 4.364E+02	 1.551E+01	 9.174E+01	-1.826E+00	-2.413E+00	-2.911E+00	-3.253E+00	-3.688E-01	-1.073E-03	-2.357E-18	 0.000E+00	 4.322E-02	-7.212E-03	-3.531E-02	-2.353E-01	-1.746E-01	-9.392E-02	-1.631E+00	-2.487E+00	-3.789E+00	-4.173E+00	-5.843E-01	-1.790E-03	-1.421E-18	 0.000E+00	 6.391E-02	 4.258E-02	-1.507E-01	-4.490E-01	-3.601E-01	-1.938E-01
   21.0000	 6.845E+00	 6.537E+00	 6.968E+00	 7.762E+00	 9.323E+00	 4.521E-01	 7.060E-01	 9.870E-01	-2.905E-04	-1.212E-06	 9.961E-01	 5.021E-05	-8.779E-02	 4.364E+02	 1.500E+01	 9.142E+01	-1.550E+00	-2.102E+00	-2.684E+00	-3.349E+00	-4.159E-01	-1.357E-03	-2.506E-18	 0.000E+00	 3.904E-02	 9.302E-03	-4.462E-02	-2.526E-01	-1.880E-01	-1.011E-01	-1.468E+00	-2.218E+00	-3.327E+00	-3.929E+00	-5.018E-01	-1.448E-03	-1.537E-18	 0.000E+00	 5.312E-02	 3.375E-02	-9.548E-02	-3.341E-01	-2.568E-01	-1.382E-01
   24.0000	 7.029E+00	 6.667E+00	 7.317E+00	 8.090E+00	 8.226E+00	 4.698E-01	 7.512E-01	 9.263E-01	-2.590E-04	-1.081E-06	 9.961E-01	 3.497E-05	-8.819E-02	 4.365E+02	 1.499E+01	 9.218E+01	-1.533E+00	-2.051E+00	-2.645E+00	-3.255E+00	-3.933E-01	-1.571E-03	-5.207E-18	 0.000E+00	 3.971E-02	 1.219E-02	-4.621E-02	-2.430E-01	-1.795E-01	-9.651E-02	-1.495E+00	-2.278E+00	-3.466E+00	-3.956E+00	-5.403E-01	-1.701E-03	-1.976E-18	 0.000E+00	 5.727E-02	 3.843E-02	-1.217E-01	-3.849E-01	-3.029E-01	-1.630E-01
   27.0000	 6.960E+00	 6.826E+00	 7.140E+00	 1.013E+01	 9.124E+00	 4.155E-01	 8.367E-01	 9.989E-01	-2.743E-04	-1.145E-06	 9.961E-01	 3.940E-05	-8.859E-02	 4.366E+02	 1.485E+01	 9.291E+01	-1.493E+00	-2.042E+00	-2.826E+00	-3.331E+00	-5.527E-01	-3.599E-03	-1.887E-17	 0.000E+00	 4.679E-02	 2.174E-02	-3.966E-02	-2.553E-01	-1.872E-01	-1.005E-01	-1.485E+00	-2.234E+00	-3.344E+00	-4.026E+00	-6.750E-01	-2.487E-03	-1.416E-18	 0.000E+00	 5.464E-02	 3.694E-02	-1.107E-01	-4.400E-01	-3.615E-01	-1.945E-01
   30.0000	 7.030E+00	 6.942E+00	 7.782E+00	 1.156E+01	 6.081E+00	 4.092E-01	 8.142E-01	 9.678E-01	-2.636E-04	-1.100E-06	 9.960E-01	 2.905E-05	-8.901E-02	 4.366E+02	 1.419E+01	 9.286E+01	-1.330E+00	-1.895E+00	-2.749E+00	-3.559E+00	-6.207E-01	-3.971E-03	-1.912E-17	 0.000E+00	 4.501E-02	 2.838E-02	-5.080E-02	-3.111E-01	-2.381E-01	-1.279E-01	-1.408E+00	-2.113E+00	-3.161E+00	-4.128E+00	-8.603E-01	-4.527E-03	-2.355E-18	 0.000E+00	 5.059E-02	 3.620E-02	-8.004E-02	-4.567E-01	-3.847E-01	-2.069E-01
   33.0000	 7.126E+00	 7.045E+00	 7.513E+00	 1.095E+01	 6.992E+00	 4.152E-01	 7.759E-01	 9.729E-01	-2.818E-04	-1.176E-06	 9.960E-01	 1.201E-04	-8.934E-02	 4.366E+02	 1.278E+01	 9.196E+01	-1.296E+00	-1.905E+00	-3.007E+00	-3.907E+00	-7.582E-01	-6.324E-03	-2.687E-17	 0.000E+00	 5.304E-02	 4.956E-02	-1.041E-01	-4.408E-01	-3.618E-01	-1.944E-01	-1.575E+00	-2.301E+00	-3.356E+00	-3.955E+00	-6.290E-01	-3.171E-03	-2.517E-18	 0.000E+00	 5.660E-02	 3.207E-02	-9.874E-02	-4.437E-01	-3.647E-01	-1.962E-01
   36.0000	 7.225E+00	 6.995E+00	 7.692E+00	 8.926E+00	 9.647E+00	 4.618E-01	 7.903E-01	 8.922E-01	-2.576E-04	-1.075E-06	 9.959E-01	 9.981E-06	-9.024E-02	 4.365E+02	 1.122E+01	 9.094E+01	-1.078E+00	-1.614E+00	-2.755E+00	-4.023E+00	-8.315E-01	-8.075E-03	-3.229E-17	 0.000E+00	 4.595E-02	 6.081E-02	-1.080E-01	-4.604E-01	-3.807E-01	-2.045E-01	-1.888E+00	-2.592E+00	-3.514E+00	-3.357E+00	-2.876E-01	-7.772E-04	-2.324E-18	 0.000E+00	 5.814E-02	 1.689E-02	-9.950E-02	-2.590E-01	-1.958E-01	-1.054E-01
   39.0000	 7.315E+00	 6.927E+00	 7.617E+00	 7.340E+00	 6.953E+00	 4.607E-01	 8.325E-01	 8.824E-01	-2.370E-04	-9.889E-07	 9.959E-01	 5.925E-05	-9.012E-02	 4.365E+02	 1.098E+01	 9.089E+01	-1.340E+00	-1.877E+00	-2.807E+00	-3.808E+00	-6.321E-01	-5.102E-03	-4.928E-17	 0.000E+00	 4.640E-02	 4.175E-02	-7.915E-02	-3.719E-01	-2.913E-01	-1.565E-01	-1.830E+00	-2.537E+00	-3.460E+00	-3.551E+00	-3.058E-01	-6.676E-04	-2.078E-18	 0.000E+00	 5.489E-02	 2.017E-02	-1.140E-01	-3.262E-01	-2.544E-01	-1.369E-01
   42.0000	 7.217E+00	 6.771E+00	 7.201E+00	 7.616E+00	 6.449E+00	 4.232E-01	 7.504E-01	 9.270E-01	-2.643E-04	-1.103E-06	 9.959E-01	 6.067E-05	-9.046E-02	 4.366E+02	 9.735E+00	 9.130E+01	-1.451E+00	-2.027E+00	-3.022E+00	-3.746E+00	-6.629E-01	-6.013E-03	-4.864E-17	 0.000E+00	 5.139E-02	 4.163E-02	-8.093E-02	-3.205E-01	-2.467E-01	-1.324E-01	-1.731E+00	-2.439E+00	-3.306E+00	-3.576E+00	-3.114E-01	-6.738E-04	-2.125E-18	 0.000E+00	 5.105E-02	 1.624E-02	-9.297E-02	-2.917E-01	-2.242E-01	-1.206E-01
   45.0000	 6.904E+00	 6.579E+00	 6.987E+00	 9.208E+00	 8.402E+00	 4.699E-01	 8.130E-01	 8.645E-01	-2.529E-04	-1.055E-06	 9.959E-01	 8.323E-05	-9.061E-02	 4.366E+02	 9.398E+00	 9.169E+01	-1.360E+00	-2.003E+00	-3.212E+00	-4.190E+00	-1.120E+00	-2.024E-02	-1.398E-16	 0.000E+00	 5.939E-02	 5.544E-02	-8.067E-02	-4.215E-01	-3.493E-01	-1.868E-01	-1.772E+00	-2.550E+00	-3.615E+00	-3.837E+00	-3.878E-01	-9.068E-04	-3.383E-18	 0.000E+00	 5.908E-02	 2.885E-02	-1.407E-01	-4.051E-01	-3.219E-01	-1.733E-01
   48.0000	 6.661E+00	 6.445E+00	 6.346E+00	 6.224E+00	 7.241E+00	 5.014E-01	 7.362E-01	 9.363E-01	-2.613E-04	-1.091E-06	 9.959E-01	 1.298E-04	-9.069E-02	 4.367E+02	 9.755E+00	 9.226E+01	-1.352E+00	-1.988E+00	-3.254E+00	-4.285E+00	-1.016E+00	-1.509E-02	-1.124E-16	 0.000E+00	 6.081E-02	 6.344E-02	-1.129E-01	-4.902E-01	-4.104E-01	-2.201E-01	-1.792E+00	-2.628E+00	-3.798E+00	-4.063E+00	-4.961E-01	-1.196E-03	-1.681E-18	 0.000E+00	 6.509E-02	 3.116E-02	-1.421E-01	-4.587E-01	-3.701E-01	-1.992E-01
   51.0000	 6.544E+00	 6.500E+00	 6.611E+00	 6.376E+00	 5.547E+00	 4.662E-01	 8.217E-01	 9.784E-01	-2.646E-04	-1.104E-06	 9.959E-01	 1.496E-04	-9.085E-02	 4.367E+02	 1.011E+01	 9.285E+01	-1.504E+00	-2.188E+00	-3.336E+00	-4.065E+00	-6.600E-01	-5.653E-03	-4.721E-17	 0.000E+00	 5.922E-02	 4.584E-02	-1.118E-01	-4.101E-01	-3.277E-01	-1.761E-01	-1.799E+00	-2.644E+00	-3.797E+00	-4.231E+00	-5.788E-01	-1.776E-03	-4.174E-18	 0.000E+00	 6.464E-02	 2.933E-02	-1.185E-01	-4.791E-01	-3.891E-01	-2.094E-01
   54.0000	 6.482E+00	 6.412E+00	 6.253E+00	 8.273E+00	 5.018E+00	 5.088E-01	 8.026E-01	 9.283E-01	-2.584E-04	-1.078E-06	 9.959E-01	 1.099E-04	-9.082E-02	 4.367E+02	 1.107E+01	 9.270E+01	-1.620E+00	-2.373E+00	-3.521E+00	-3.970E+00	-5.201E-01	-2.450E-03	-2.779E-17	 0.000E+00	 6.106E-02	 3.624E-02	-1.121E-01	-3.564E-01	-2.743E-01	-1.475E-01	-1.808E+00	-2.671E+00	-3.911E+00	-4.271E+00	-5.175E-01	-1.167E-03	-2.876E-18	 0.000E+00	 6.594E-02	 3.922E-02	-1.771E-01	-5.611E-01	-4.619E-01	-2.486E-01
   57.0000	 6.493E+00	 6.362E+00	 6.021E+00	 9.313E+00	 7.814E+00	 4.727E-01	 8.488E-01	 8.472E-01	-2.423E-04	-1.011E-06	 9.959E-01	 8.599E-05	-9.070E-02	 4.367E+02	 1.227E+01	 9.253E+01	-1.680E+00	-2.462E+00	-3.659E+00	-4.153E+00	-5.711E-01	-2.558E-03	-6.564E-18	 0.000E+00	 6.239E-02	 3.914E-02	-1.247E-01	-3.935E-01	-3.070E-01	-1.651E-01	-1.739E+00	-2.594E+00	-3.844E+00	-4.226E+00	-4.692E-01	-8.016E-04	-1.177E-18	 0.000E+00	 6.447E-02	 4.159E-02	-1.917E-01	-5.760E-01	-4.743E-01	-2.553E-01
   60.0000	 6.544E+00	 6.431E+00	 6.083E+00	 9.073E+00	 8.432E+00	 5.352E-01	 8.652E-01	 7.947E-01	-2.251E-04	-9.392E-07	 9.959E-01	 9.642E-05	-9.052E-02	 4.367E+02	 1.277E+01	 9.241E+01	-1.482E+00	-2.249E+00	-3.442E+00	-4.161E+00	-5.351E-01	-1.831E-03	-5.391E-18	 0.000E+00	 5.587E-02	 4.112E-02	-1.237E-01	-4.035E-01	-3.170E-01	-1.706E-01	-1.720E+00	-2.529E+00	-3.654E+00	-3.986E+00	-4.795E-01	-9.614E-04	-1.102E-18	 0.000E+00	 6.099E-02	 3.010E-02	-1.308E-01	-4.329E-01	-3.455E-01	-1.860E-01
   63.0000	 6.550E+00	 6.539E+00	 6.359E+00	 8.296E+00	 7.325E+00	 5.640E-01	 7.725E-01	 8.162E-01	-2.157E-04	-9.002E-07	 9.959E-01	 1.897E-05	-9.020E-02	 4.366E+02	 1.241E+01	 9.198E+01	-1.574E+00	-2.364E+00	-3.509E+00	-3.743E+00	-3.568E-01	-9.842E-04	-2.252E-18	 0.000E+00	 5.767E-02	 3.099E-02	-1.138E-01	-2.968E-01	-2.263E-01	-1.218E-01	-1.788E+00	-2.486E+00	-3.398E+00	-3.699E+00	-4.280E-01	-1.325E-03	-1.662E-18	 0.000E+00	 5.321E-02	 2.363E-02	-1.079E-01	-3.318E-01	-2.565E-01	-1.380E-01
   66.0000	 6.695E+00	 6.711E+00	 6.256E+00	 8.669E+00	 7.480E+00	 4.958E-01	 7.442E-01	 8.581E-01	-2.274E-04	-9.488E-07	 9.959E-01	 4.629E-05	-9.005E-02	 4.366E+02	 1.210E+01	 9.173E+01	-1.593E+00	-2.338E+00	-3.341E+00	-3.750E+00	-4.478E-01	-1.205E-03	-2.661E-18	 0.000E+00	 5.342E-02	 2.555E-02	-9.411E-02	-3.225E-01	-2.488E-01	-1.339E-01	-1.788E+00	-2.448E+00	-3.306E+00	-3.334E+00	-4.390E-01	-1.844E-03	-4.333E-18	 0.000E+00	 5.431E-02	 1.575E-02	-6.813E-02	-2.360E-01	-1.722E-01	-9.258E-02
   69.0000	 6.886E+00	 6.815E+00	 6.221E+00	 8.023E+00	 9.115E+00	 4.549E-01	 7.132E-01	 8.715E-01	-2.521E-04	-1.052E-06	 9.959E-01	 9.015E-05	-9.011E-02	 4.366E+02	 1.135E+01	 9.144E+01	-1.457E+00	-2.164E+00	-3.198E+00	-3.978E+00	-7.384E-01	-3.576E-03	-2.887E-18	 0.000E+00	 5.138E-02	 3.308E-02	-7.998E-02	-3.953E-01	-3.224E-01	-1.734E-01	-1.866E+00	-2.494E+00	-3.098E+00	-3.054E+00	-2.838E-01	-9.234E-04	-3.327E-18	 0.000E+00	 4.944E-02	-7.744E-03	-3.885E-02	-1.837E-01	-1.315E-01	-7.072E-02
   72.0000	 6.968E+00	 6.990E+00	 5.230E+00	 9.149E+00	 1.179E+01	 4.821E-01	 7.997E-01	 8.465E-01	-2.439E-04	-1.018E-06	 9.960E-01	 1.128E-04	-8.957E-02	 4.364E+02	 1.078E+01	 9.059E+01	-1.562E+00	-2.255E+00	-3.161E+00	-3.576E+00	-5.218E-01	-2.325E-03	-2.709E-18	 0.000E+00	 5.243E-02	 1.771E-02	-6.012E-02	-2.861E-01	-2.181E-01	-1.173E-01	-1.559E+00	-2.070E+00	-2.620E+00	-3.110E+00	-3.064E-01	-1.084E-03	-4.882E-18	 0.000E+00	 3.869E-02	 8.559E-03	-4.698E-02	-2.118E-01	-1.548E-01	-8.326E-02
   75.0000	 7.070E+00	 6.987E+00	 3.906E+00	 8.645E+00	 1.397E+01	 4.738E-01	 8.729E-01	 8.329E-01	-2.265E-04	-9.451E-07	 9.960E-01	 4.705E-05	-8.952E-02	 4.364E+02	 1.057E+01	 9.050E+01	-1.746E+00	-2.475E+00	-3.495E+00	-3.261E+00	-2.711E-01	-7.840E-04	-3.199E-18	 0.000E+00	 6.152E-02	 2.240E-02	-1.220E-01	-2.606E-01	-1.974E-01	-1.062E-01	-1.339E+00	-1.804E+00	-2.431E+00	-3.376E+00	-5.381E-01	-3.256E-03	-1.783E-17	 0.000E+00	 3.623E-02	 2.153E-02	-4.462E-02	-2.935E-01	-2.230E-01	-1.198E-01
   78.0000	 6.986E+00	 6.990E+00	 3.933E+00	 1.068E+01	 1.833E+01	 4.510E-01	 8.470E-01	 9.008E-01	-2.440E-04	-1.018E-06	 9.960E-01	 1.001E-05	-8.937E-02	 4.365E+02	 1.084E+01	 9.106E+01	-1.916E+00	-2.607E+00	-3.434E+00	-3.067E+00	-2.364E-01	-7.115E-04	-4.562E-18	 0.000E+00	 5.696E-02	 6.914E-03	-8.715E-02	-1.934E-01	-1.417E-01	-7.625E-02	-1.344E+00	-1.932E+00	-2.871E+00	-3.495E+00	-5.370E-01	-3.126E-03	-9.316E-18	 0.000E+00	 4.783E-02	 3.335E-02	-7.241E-02	-2.860E-01	-2.147E-01	-1.154E-01
   81.0000	 6.927E+00	 7.089E+00	 4.686E+00	 8.495E+00	 1.663E+01	 4.704E-01	 8.429E-01	 9.096E-01	-2.535E-04	-1.058E-06	 9.960E-01	 1.740E-05	-8.943E-02	 4.365E+02	 1.184E+01	 9.089E+01	-1.639E+00	-2.319E+00	-3.260E+00	-3.440E+00	-2.699E-01	-6.493E-04	-4.046E-18	 0.000E+00	 5.046E-02	 2.559E-02	-1.130E-01	-2.856E-01	-2.191E-01	-1.179E-01	-1.289E+00	-1.870E+00	-2.847E+00	-3.500E+00	-4.841E-01	-2.654E-03	-1.944E-17	 0.000E+00	 4.939E-02	 3.797E-02	-8.585E-02	-3.068E-01	-2.334E-01	-1.255E-01
   84.0000	 6.700E+00	 7.200E+00	 5.053E+00	 1.040E+01	 1.773E+01	 5.082E-01	 7.871E-01	 8.999E-01	-2.466E-04	-1.029E-06	 9.960E-01	 3.171E-05	-8.986E-02	 4.364E+02	 1.406E+01	 8.995E+01	-1.599E+00	-2.303E+00	-3.251E+00	-3.505E+00	-2.404E-01	-4.836E-04	-2.320E-18	 0.000E+00	 5.147E-02	 2.185E-02	-1.105E-01	-2.855E-01	-2.197E-01	-1.182E-01	-1.184E+00	-1.724E+00	-2.693E+00	-3.704E+00	-5.660E-01	-3.334E-03	-3.564E-17	 0.000E+00	 4.458E-02	 4.480E-02	-8.875E-02	-3.774E-01	-2.964E-01	-1.593E-01
   87.0000	 6.520E+00	 7.294E+00	 5.892E+00	 9.446E+00	 1.334E+01	 5.205E-01	 7.182E-01	 8.607E-01	-2.374E-04	-9.907E-07	 9.959E-01	 1.225E-05	-9.022E-02	 4.364E+02	 1.734E+01	 8.915E+01	-1.865E+00	-2.622E+00	-3.588E+00	-3.428E+00	-2.803E-01	-7.900E-04	-5.540E-18	 0.000E+00	 6.160E-02	 1.243E-02	-9.333E-02	-2.382E-01	-1.774E-01	-9.544E-02	-1.161E+00	-1.690E+00	-2.656E+00	-3.661E+00	-5.277E-01	-3.459E-03	-1.593E-17	 0.000E+00	 4.389E-02	 4.489E-02	-9.090E-02	-3.403E-01	-2.630E-01	-1.413E-01
   90.0000	 6.471E+00	 7.265E+00	 5.795E+00	 7.584E+00	 1.453E+01	 5.511E-01	 8.274E-01	 9.182E-01	-2.631E-04	-1.098E-06	 9.959E-01	-7.092E-05	-9.054E-02	 4.363E+02	 2.214E+01	 8.821E+01	-1.811E+00	-2.676E+00	-3.857E+00	-3.865E+00	-4.230E-01	-1.185E-03	-9.808E-18	 0.000E+00	 6.796E-02	 2.564E-02	-1.379E-01	-3.818E-01	-3.006E-01	-1.618E-01	-1.315E+00	-1.852E+00	-2.756E+00	-3.292E+00	-3.494E-01	-1.901E-03	-1.680E-17	 0.000E+00	 4.609E-02	 3.604E-02	-8.449E-02	-2.255E-01	-1.623E-01	-8.721E-02
